Automatically generated mesh
      14
Reciprocal lattice
    0.00000000000000    0.00000000000000    0.00000000000000             1
    0.25000000000000    0.00000000000000   -0.00000000000000             8
    0.50000000000000    0.00000000000000   -0.00000000000000             4
    0.25000000000000    0.25000000000000    0.00000000000000             8
    0.50000000000000    0.25000000000000    0.00000000000000             8
   -0.25000000000000    0.25000000000000    0.00000000000000             4
    0.25000000000000    0.50000000000000    0.00000000000000             8
    0.50000000000000    0.50000000000000    0.00000000000000             2
    0.25000000000000    0.25000000000000    0.25000000000000             2
   -0.25000000000000    0.25000000000000    0.25000000000000             4
    0.50000000000000    0.50000000000000    0.25000000000000             4
   -0.25000000000000    0.50000000000000    0.25000000000000             8
   -0.25000000000000   -0.25000000000000    0.25000000000000             2
    0.50000000000000    0.50000000000000    0.50000000000000             1
Tetrahedra
       117    0.00260416666667
         4         1         2         4         6
         4         2         4         5         6
         4         2         4         6         7
         2         4         6         7         9
         2         4         5         6         9
         4         2         3         5         7
         4         2         4         5         7
         8         4         5         7         9
         8         3         4         5         7
         4         4         5         7         7
         4         5         7         7         9
         4         2         3         4         6
         2         3         4         5         6
         4         4         5         6         7
         4         2         2         4         6
         4         2         4         6        10
         2         4         6         7        10
         4         1         2         2         2
         4         2         2         2         6
         4         2         2         6        10
         4         1         2         2         6
         2         2         2         5         6
         2         2         2         5        10
         4         5         5         7         9
         4         4         5         5         7
         4         4         5         8         9
         4         4         7         8         9
         8         5         7         8         9
         2         7         8         9        11
         2         5         8         9        11
         2         5         6         7         7
         4         5         7         7         8
         2         7         7         8        11
         2         6         7         7        10
         2         7         7        10        12
         2         7         7        11        12
         4         2         3         6        10
         2         3         6         7        10
         4         3         7        10        12
         4         2         3         5        10
         4         3         4         5        10
         4         3         4        10        12
         2         3         4         6         7
         2         4         5         6        10
         4         5         5         7         8
         2         5         5         6         7
         2         5         5         6        10
         2         5         5         8        11
         2         5         5        11        12
         2         5         5        10        12
         2         4         7         8        11
         2         4         5         8        11
         4         4         5        11        12
         4         4         7        11        12
         4         4        11        12        13
         4         2         3         7        12
         4         2         4         7        12
         8         2         4        12        13
         8         2         3         4        12
         4         2         2         4        12
         4         2         2        12        13
         2         2         2         7        10
         2         2         2         6         7
         2         3         5         6        10
         4         2         3         7        10
         4         3         5        10        12
         4         3         4         7        10
         4         2         4         5        12
         4         2         3         5        12
         4         1         2         4        13
         4         1         2         2        13
         4         1         2         6        13
         2         6         7         8         9
         2         5         6         8         9
         4         3         5         7        12
         4         4         5         7        12
         4         2         3         4        10
         2         3         5        10        11
         4         3        10        11        12
         2         2         5         5         6
         2         2         5         5        10
         2         5         5        10        11
         2         5         5         6         8
         2         5         5         7        11
         2         4         7         9        11
         2         4         5         9        11
         4         4        11        12        14
         2         7        10        12        12
         2         7        11        12        12
         4        11        12        12        14
         4        10        11        12        12
         4        11        12        12        12
         4        12        12        12        14
         2         4         5        10        11
         4         4        10        11        12
         4         4        11        12        12
         4         4         5         7        11
         2         3         4         7        11
         4         3         4        11        12
         2         3         7        10        11
         2         5        11        12        12
         2         5        10        12        12
         4        11        12        13        14
         4        12        12        13        14
         4         4        12        13        14
         4         2         4        12        12
         4         2        12        12        13
         2         2         7         7        10
         2         2         6         7         7
         2         6         7         7         8
         2         7         7        10        11
         2         5         7         7        11
         2         4         7        10        11
         2         3         4         5        11
         4         2         4         6        13
         2         4         6         7         8
         2         4         5         6         8
