 vasp.5.4.4.18Apr17-6-g9f103f2a35 (build Apr 27 2017 15:58:20) complex          
  
 executed on       CrayXC-Intel16 date 2020.05.25  17:49:58
 running on  240 total cores
 distrk:  each k-point on   10 cores,   24 groups
 distr:  one band on NCORES_PER_BAND=  10 cores,    1 groups


--------------------------------------------------------------------------------------------------------


 INCAR:
 POTCAR:    PAW_PBE O 08Apr2002                   
 POTCAR:    PAW_PBE V_pv 07Sep2000                
 POTCAR:    PAW_PBE Bi_d 06Sep2000                

 ----------------------------------------------------------------------------- 
|                                                                             |
|           W    W    AA    RRRRR   N    N  II  N    N   GGGG   !!!           |
|           W    W   A  A   R    R  NN   N  II  NN   N  G    G  !!!           |
|           W    W  A    A  R    R  N N  N  II  N N  N  G       !!!           |
|           W WW W  AAAAAA  RRRRR   N  N N  II  N  N N  G  GGG   !            |
|           WW  WW  A    A  R   R   N   NN  II  N   NN  G    G                |
|           W    W  A    A  R    R  N    N  II  N    N   GGGG   !!!           |
|                                                                             |
|      You have enabled k-point parallelism (KPAR>1).                         |
|      This developmental code was originally  written by Paul Kent at ORNL,  |
|      and carefully double checked in Vienna.                                |
|      GW as well as linear response parallelism added by Martijn Marsman     |
|      and Georg Kresse.                                                      |
|      Carefully verify results versus KPAR=1.                                |
|      Report problems to Paul Kent and Vienna.                               |
|                                                                             |
 ----------------------------------------------------------------------------- 

 POTCAR:    PAW_PBE O 08Apr2002                   
   VRHFIN =O: s2p4                                                              
   LEXCH  = PE                                                                  
   EATOM  =   432.3788 eV,   31.7789 Ry                                         
                                                                                
   TITEL  = PAW_PBE O 08Apr2002                                                 
   LULTRA =        F    use ultrasoft PP ?                                      
   IUNSCR =        1    unscreen: 0-lin 1-nonlin 2-no                           
   RPACOR =    1.200    partial core radius                                     
   POMASS =   16.000; ZVAL   =    6.000    mass and valenz                      
   RCORE  =    1.520    outmost cutoff radius                                   
   RWIGS  =    1.550; RWIGS  =    0.820    wigner-seitz radius (au A)           
   ENMAX  =  400.000; ENMIN  =  300.000 eV                                      
   ICORE  =        2    local potential                                         
   LCOR   =        T    correct aug charges                                     
   LPAW   =        T    paw PP                                                  
   EAUG   =  605.392                                                            
   DEXC   =    0.000                                                            
   RMAX   =    1.553    core radius for proj-oper                               
   RAUG   =    1.300    factor for augmentation sphere                          
   RDEP   =    1.550    radius for radial grids                                 
   RDEPT  =    1.329    core radius for aug-charge                              
                                                                                
   Atomic configuration                                                         
    4 entries                                                                   
     n  l   j            E        occ.                                          
     1  0  0.50      -514.6923   2.0000                                         
     2  0  0.50       -23.9615   2.0000                                         
     2  1  0.50        -9.0305   4.0000                                         
     3  2  1.50        -9.5241   0.0000                                         
   Description                                                                  
     l       E           TYP  RCUT    TYP  RCUT                                 
     0    -23.9615318     23  1.200                                             
     0     -9.5240782     23  1.200                                             
     1     -9.0304911     23  1.520                                             
     1      8.1634956     23  1.520                                             
     2     -9.5240782      7  1.500                                             
  local pseudopotential read in
  partial core-charges read in
  partial kinetic energy density read in
  kinetic energy density of atom read in
  atomic valenz-charges read in
  non local Contribution for L=           0  read in
    real space projection operators read in
  non local Contribution for L=           0  read in
    real space projection operators read in
  non local Contribution for L=           1  read in
    real space projection operators read in
  non local Contribution for L=           1  read in
    real space projection operators read in
    PAW grid and wavefunctions read in
 
   number of l-projection  operators is LMAX  =           4
   number of lm-projection operators is LMMAX =           8
 
 POTCAR:    PAW_PBE V_pv 07Sep2000                
   VRHFIN =V: p6 d4 s1                                                          
   LEXCH  = PE                                                                  
   EATOM  =  1321.6206 eV,   97.1364 Ry                                         
                                                                                
   TITEL  = PAW_PBE V_pv 07Sep2000                                              
   LULTRA =        F    use ultrasoft PP ?                                      
   IUNSCR =        1    unscreen: 0-lin 1-nonlin 2-no                           
   RPACOR =    1.700    partial core radius                                     
   POMASS =   50.941; ZVAL   =   11.000    mass and valenz                      
   RCORE  =    2.300    outmost cutoff radius                                   
   RWIGS  =    2.300; RWIGS  =    1.217    wigner-seitz radius (au A)           
   ENMAX  =  263.673; ENMIN  =  197.755 eV                                      
   RCLOC  =    1.779    cutoff for local pot                                    
   LCOR   =        T    correct aug charges                                     
   LPAW   =        T    paw PP                                                  
   EAUG   =  598.473                                                            
   DEXC   =    0.000                                                            
   RMAX   =    2.359    core radius for proj-oper                               
   RAUG   =    1.300    factor for augmentation sphere                          
   RDEP   =    2.430    radius for radial grids                                 
   RDEPT  =    1.700    core radius for aug-charge                              
                                                                                
   Atomic configuration                                                         
    8 entries                                                                   
     n  l   j            E        occ.                                          
     1  0  0.50     -5360.7193   2.0000                                         
     2  0  0.50      -598.4546   2.0000                                         
     2  1  1.50      -499.0155   6.0000                                         
     3  0  0.50       -66.5711   2.0000                                         
     3  1  1.50       -40.5282   6.0000                                         
     3  2  2.50        -2.4291   4.0000                                         
     4  0  0.50        -3.8743   1.0000                                         
     4  3  2.50        -1.3606   0.0000                                         
   Description                                                                  
     l       E           TYP  RCUT    TYP  RCUT                                 
     1    -40.5282431     23  2.000                                             
     1      5.4423304     23  2.000                                             
     2     -2.4290905     23  2.300                                             
     2     -1.0472488     23  2.300                                             
     0     -3.8742754     23  2.300                                             
     0     27.2116520     23  2.300                                             
  local pseudopotential read in
  partial core-charges read in
  partial kinetic energy density read in
  atomic valenz-charges read in
  non local Contribution for L=           1  read in
    real space projection operators read in
  non local Contribution for L=           1  read in
    real space projection operators read in
  non local Contribution for L=           2  read in
    real space projection operators read in
  non local Contribution for L=           2  read in
    real space projection operators read in
  non local Contribution for L=           0  read in
    real space projection operators read in
  non local Contribution for L=           0  read in
    real space projection operators read in
    PAW grid and wavefunctions read in
 
   number of l-projection  operators is LMAX  =           6
   number of lm-projection operators is LMMAX =          18
 
 POTCAR:    PAW_PBE Bi_d 06Sep2000                
   VRHFIN =Bi:                                                                  
   LEXCH  = PE                                                                  
   EATOM  =  1959.2045 eV,  143.9975 Ry                                         
                                                                                
   TITEL  = PAW_PBE Bi_d 06Sep2000                                              
   LULTRA =        F    use ultrasoft PP ?                                      
   IUNSCR =        1    unscreen: 0-lin 1-nonlin 2-no                           
   RPACOR =    2.200    partial core radius                                     
   POMASS =  208.980; ZVAL   =   15.000    mass and valenz                      
   RCORE  =    2.500    outmost cutoff radius                                   
   RWIGS  =    3.090; RWIGS  =    1.635    wigner-seitz radius (au A)           
   ENMAX  =  242.839; ENMIN  =  182.129 eV                                      
   ICORE  =        3    local potential                                         
   LCOR   =        T    correct aug charges                                     
   LPAW   =        T    paw PP                                                  
   EAUG   =  442.899                                                            
   DEXC   =    0.000                                                            
   RMAX   =    2.551    core radius for proj-oper                               
   RAUG   =    1.300    factor for augmentation sphere                          
   RDEP   =    2.650    radius for radial grids                                 
   RDEPT  =    2.039    core radius for aug-charge                              
                                                                                
   Atomic configuration                                                         
   16 entries                                                                   
     n  l   j            E        occ.                                          
     1  0  0.50    -90639.6581   2.0000                                         
     2  0  0.50    -16282.4666   2.0000                                         
     2  1  1.50    -13922.8286   6.0000                                         
     3  0  0.50     -3930.4763   2.0000                                         
     3  1  1.50     -3256.7013   6.0000                                         
     3  2  2.50     -2581.6168  10.0000                                         
     4  0  0.50      -902.2614   2.0000                                         
     4  1  1.50      -681.5915   6.0000                                         
     4  2  2.50      -429.8249  10.0000                                         
     4  3  3.50      -152.6004  14.0000                                         
     5  0  0.50      -157.7156   2.0000                                         
     5  1  1.50       -95.8054   6.0000                                         
     5  2  2.50       -27.0806  10.0000                                         
     6  0  0.50       -14.4732   2.0000                                         
     6  1  1.50        -4.5702   3.0000                                         
     5  3  2.50        -2.7212   0.0000                                         
   Description                                                                  
     l       E           TYP  RCUT    TYP  RCUT                                 
     2    -27.0805982     23  2.500                                             
     2     -1.3605826     23  2.500                                             
     0    -14.4732271     23  2.500                                             
     0      6.8029130     23  2.500                                             
     1     -4.5701651     23  2.500                                             
     1     13.6058260     23  2.500                                             
     3     -1.3605826      7  2.500                                             
  local pseudopotential read in
  partial core-charges read in
  partial kinetic energy density read in
  atomic valenz-charges read in
  non local Contribution for L=           2  read in
    real space projection operators read in
  non local Contribution for L=           2  read in
    real space projection operators read in
  non local Contribution for L=           0  read in
    real space projection operators read in
  non local Contribution for L=           0  read in
    real space projection operators read in
  non local Contribution for L=           1  read in
    real space projection operators read in
  non local Contribution for L=           1  read in
    real space projection operators read in
    PAW grid and wavefunctions read in
 
   number of l-projection  operators is LMAX  =           6
   number of lm-projection operators is LMMAX =          18
 
 WARNING: PSMAXN for non-local potential too small
          PSMAXN should be >   15.7905836300310       NTYP=           3

 ----------------------------------------------------------------------------- 
|                                                                             |
|  ADVICE TO THIS USER RUNNING 'VASP/VAMP'   (HEAR YOUR MASTER'S VOICE ...):  |
|                                                                             |
|      You enforced a specific xc-type in the INCAR file,                     |
|      a different type was found on the POTCAR file                          |
|          I HOPE YOU KNOW, WHAT YOU ARE  DOING                               |
|                                                                             |
 ----------------------------------------------------------------------------- 

  PAW_PBE O 08Apr2002                   :
 energy of atom  1       EATOM= -432.3788
 kinetic energy error for atom=    0.0024 (will be added to EATOM!!)
  PAW_PBE V_pv 07Sep2000                :
 energy of atom  2       EATOM=-1321.6206
 kinetic energy error for atom=    0.0007 (will be added to EATOM!!)
  PAW_PBE Bi_d 06Sep2000                :
 energy of atom  3       EATOM=-1959.2045
 kinetic energy error for atom=    0.0004 (will be added to EATOM!!)
 
 
 POSCAR: New structure                           
  positions in direct lattice
  velocities in cartesian coordinates
 exchange correlation table for  LEXCH =       14
   RHO(1)=    0.500       N(1)  =     2000
   RHO(2)=  100.500       N(2)  =     4000
 


--------------------------------------------------------------------------------------------------------


 ion  position               nearest neighbor table
   1  0.702  0.342  0.636-   9 1.69  11 2.40  12 2.43
   2  0.206  0.066  0.864-   9 1.69  11 2.40  12 2.43
   3  0.842  0.706  0.640-  10 1.69  12 2.40  11 2.43
   4  0.566  0.202  0.860-  10 1.69  12 2.40  11 2.43
   5  0.298  0.658  0.364-  10 1.69  12 2.40  11 2.43
   6  0.794  0.934  0.136-  10 1.69  12 2.40  11 2.43
   7  0.158  0.294  0.360-   9 1.69  11 2.40  12 2.43
   8  0.434  0.798  0.140-   9 1.69  11 2.40  12 2.43
   9  0.375  0.125  0.250-   7 1.69   8 1.69   2 1.69   1 1.69
  10  0.625  0.875  0.750-   3 1.69   4 1.69   5 1.69   6 1.69
  11  0.875  0.625  0.250-   8 2.40   7 2.40   2 2.40   1 2.40   6 2.43   3 2.43   5 2.43   4 2.43
                            12 3.81  12 3.81  12 3.81  12 3.81
  12  0.125  0.375  0.750-   4 2.40   3 2.40   5 2.40   6 2.40   1 2.43   2 2.43   8 2.43   7 2.43
                            11 3.81  11 3.81  11 3.81  11 3.81
 
  LATTYP: Found a body centered tetragonal cell.
 ALAT       =     5.0442127888
 C/A-ratio  =     2.2605660128
  
  Lattice vectors:
  
 A1 = (   6.7251293189,  -0.0223517798,   0.0000007034)
 A2 = (   2.9618378296,   6.0378291321,  -0.0000007451)
 A3 = (  -4.8434835850,  -3.0077378303,   3.5667974330)


Analysis of symmetry for initial positions (statically):
=====================================================================
 Subroutine PRICEL returns:
 Original cell was already a primitive cell.
 

 Routine SETGRP: Setting up the symmetry group for a 
 body centered tetragonal supercell.


 Subroutine GETGRP returns: Found  8 space group operations
 (whereof  2 operations were pure point group operations)
 out of a pool of 16 trial point group operations.


The static configuration has the point symmetry S_2 .
 The point group associated with its full space group is C_4h.


Analysis of symmetry for dynamics (positions and initial velocities):
=====================================================================
 Subroutine PRICEL returns:
 Original cell was already a primitive cell.
 

 Routine SETGRP: Setting up the symmetry group for a 
 body centered tetragonal supercell.


 Subroutine GETGRP returns: Found  8 space group operations
 (whereof  2 operations were pure point group operations)
 out of a pool of 16 trial point group operations.


The dynamic configuration has the point symmetry S_2 .
 The point group associated with its full space group is C_4h.


 Subroutine INISYM returns: Found  8 space group operations
 (whereof  2 operations are pure point group operations),
 and found     1 'primitive' translations

 
 
 KPOINTS: Automatic generation                    

Automatic generation of k-mesh.
Space group operators:
 irot       det(A)        alpha          n_x          n_y          n_z        tau_x        tau_y        tau_z
    1     1.000000     0.000001     1.000000     0.000000     0.000000     0.000000     0.000000     0.000000
    2    -1.000000     0.000001     1.000000     0.000000     0.000000     0.000000     0.000000     0.000000
    3     1.000000    90.000000    -0.849527    -0.527545     0.000000     0.500000    -0.000000     0.000000
    4    -1.000000    90.000000    -0.849527    -0.527545     0.000000     0.500000    -0.000000     0.000000
    5     1.000000   180.000000     0.849527     0.527545    -0.000000     0.500000     0.000000     0.500000
    6    -1.000000   180.000000     0.849527     0.527545    -0.000000     0.500000     0.000000     0.500000
    7     1.000000    90.000000     0.849527     0.527545    -0.000000     0.500000     0.500000     0.500000
    8    -1.000000    90.000000     0.849527     0.527545    -0.000000     0.500000     0.500000     0.500000
 
 Subroutine IBZKPT returns following result:
 ===========================================
 
 Found     14 irreducible k-points:
 
 Following reciprocal coordinates:
            Coordinates               Weight
  0.000000  0.000000  0.000000      1.000000
  0.250000  0.000000 -0.000000      8.000000
  0.500000  0.000000 -0.000000      4.000000
  0.250000  0.250000  0.000000      8.000000
  0.500000  0.250000  0.000000      8.000000
 -0.250000  0.250000  0.000000      4.000000
  0.250000  0.500000  0.000000      8.000000
  0.500000  0.500000  0.000000      2.000000
  0.250000  0.250000  0.250000      2.000000
 -0.250000  0.250000  0.250000      4.000000
  0.500000  0.500000  0.250000      4.000000
 -0.250000  0.500000  0.250000      8.000000
 -0.250000 -0.250000  0.250000      2.000000
  0.500000  0.500000  0.500000      1.000000
 
 Following cartesian coordinates:
            Coordinates               Weight
  0.000000  0.000000  0.000000      1.000000
  0.037113 -0.018206  0.035045      8.000000
  0.074227 -0.036412  0.070091      4.000000
  0.037251  0.023132  0.070091      8.000000
  0.074364  0.004926  0.105136      8.000000
 -0.036976  0.059544 -0.000000      4.000000
  0.037388  0.064471  0.105136      8.000000
  0.074502  0.046265  0.140182      2.000000
  0.037251  0.023132  0.140182      2.000000
 -0.036976  0.059544  0.070091      4.000000
  0.074502  0.046265  0.210273      4.000000
 -0.036839  0.100882  0.105136      8.000000
 -0.037251 -0.023132  0.000000      2.000000
  0.074502  0.046265  0.280364      1.000000
 
 TETIRR: Found    117 inequivalent tetrahedra from      384
 
 Subroutine IBZKPT_HF returns following result:
 ==============================================
 
 Found     64 k-points in 1st BZ
 the following     64 k-points will be used (e.g. in the exchange kernel)
 Following reciprocal coordinates:   # in IRBZ
  0.000000  0.000000  0.000000    0.01562500   1 t-inv F
  0.250000  0.000000 -0.000000    0.01562500   2 t-inv F
  0.500000  0.000000 -0.000000    0.01562500   3 t-inv F
  0.250000  0.250000  0.000000    0.01562500   4 t-inv F
  0.500000  0.250000  0.000000    0.01562500   5 t-inv F
 -0.250000  0.250000  0.000000    0.01562500   6 t-inv F
  0.250000  0.500000  0.000000    0.01562500   7 t-inv F
  0.500000  0.500000  0.000000    0.01562500   8 t-inv F
  0.250000  0.250000  0.250000    0.01562500   9 t-inv F
 -0.250000  0.250000  0.250000    0.01562500  10 t-inv F
  0.500000  0.500000  0.250000    0.01562500  11 t-inv F
 -0.250000  0.500000  0.250000    0.01562500  12 t-inv F
 -0.250000 -0.250000  0.250000    0.01562500  13 t-inv F
  0.500000  0.500000  0.500000    0.01562500  14 t-inv F
 -0.250000 -0.000000  0.000000    0.01562500   2 t-inv F
  0.250000  0.000000 -0.250000    0.01562500   2 t-inv F
 -0.250000 -0.000000  0.250000    0.01562500   2 t-inv F
  0.000000  0.250000 -0.250000    0.01562500   2 t-inv F
 -0.000000 -0.250000  0.250000    0.01562500   2 t-inv F
  0.000000  0.250000 -0.000000    0.01562500   2 t-inv F
 -0.000000 -0.250000  0.000000    0.01562500   2 t-inv F
  0.500000  0.000000 -0.500000    0.01562500   3 t-inv F
  0.000000  0.500000 -0.500000    0.01562500   3 t-inv F
  0.000000  0.500000 -0.000000    0.01562500   3 t-inv F
 -0.250000 -0.250000 -0.000000    0.01562500   4 t-inv F
  0.500000 -0.000000 -0.250000    0.01562500   4 t-inv F
 -0.500000  0.000000  0.250000    0.01562500   4 t-inv F
  0.250000  0.250000 -0.500000    0.01562500   4 t-inv F
 -0.250000 -0.250000  0.500000    0.01562500   4 t-inv F
 -0.000000  0.500000 -0.250000    0.01562500   4 t-inv F
  0.000000 -0.500000  0.250000    0.01562500   4 t-inv F
 -0.500000 -0.250000  0.000000    0.01562500   5 t-inv F
  0.750000  0.000000 -0.500000    0.01562500   5 t-inv F
 -0.750000  0.000000  0.500000    0.01562500   5 t-inv F
  0.250000  0.500000 -0.750000    0.01562500   5 t-inv F
 -0.250000 -0.500000  0.750000    0.01562500   5 t-inv F
  0.000000  0.750000 -0.250000    0.01562500   5 t-inv F
  0.000000 -0.750000  0.250000    0.01562500   5 t-inv F
  0.250000 -0.250000 -0.000000    0.01562500   6 t-inv F
 -0.000000 -0.000000  0.250000    0.01562500   6 t-inv F
  0.000000  0.000000 -0.250000    0.01562500   6 t-inv F
 -0.250000 -0.500000  0.000000    0.01562500   7 t-inv F
  0.750000  0.000000 -0.250000    0.01562500   7 t-inv F
 -0.750000  0.000000  0.250000    0.01562500   7 t-inv F
  0.500000  0.250000 -0.750000    0.01562500   7 t-inv F
 -0.500000 -0.250000  0.750000    0.01562500   7 t-inv F
  0.000000  0.750000 -0.500000    0.01562500   7 t-inv F
  0.000000 -0.750000  0.500000    0.01562500   7 t-inv F
  1.000000 -0.000000 -0.500000    0.01562500   8 t-inv F
 -0.250000 -0.250000 -0.250000    0.01562500   9 t-inv F
  0.250000 -0.250000 -0.250000    0.01562500  10 t-inv F
  0.250000 -0.250000  0.250000    0.01562500  10 t-inv F
 -0.250000  0.250000 -0.250000    0.01562500  10 t-inv F
 -0.500000 -0.500000 -0.250000    0.01562500  11 t-inv F
  1.250000 -0.250000 -0.500000    0.01562500  11 t-inv F
 -1.250000  0.250000  0.500000    0.01562500  11 t-inv F
  0.250000 -0.500000 -0.250000    0.01562500  12 t-inv F
  0.500000 -0.250000  0.250000    0.01562500  12 t-inv F
 -0.500000  0.250000 -0.250000    0.01562500  12 t-inv F
  0.500000 -0.250000 -0.500000    0.01562500  12 t-inv F
 -0.500000  0.250000  0.500000    0.01562500  12 t-inv F
 -0.250000  0.500000 -0.500000    0.01562500  12 t-inv F
  0.250000 -0.500000  0.500000    0.01562500  12 t-inv F
  0.250000  0.250000 -0.250000    0.01562500  13 t-inv F


--------------------------------------------------------------------------------------------------------




 Dimension of arrays:
   k-points           NKPTS =     14   k-points in BZ     NKDIM =     64   number of bands    NBANDS=     60
   number of dos      NEDOS =    301   number of ions     NIONS =     12
   non local maximal  LDIM  =      6   non local SUM 2l+1 LMDIM =     18
   total plane-waves  NPLWV = 343000
   max r-space proj   IRMAX =      1   max aug-charges    IRDMAX= 836049
   dimension x,y,z NGX =    70 NGY =   70 NGZ =   70
   dimension x,y,z NGXF=   140 NGYF=  140 NGZF=  140
   support grid    NGXF=   280 NGYF=  280 NGZF=  280
   ions per type =               8   2   2
   NGX,Y,Z   is equivalent  to a cutoff of  17.30, 17.30, 17.30 a.u.
   NGXF,Y,Z  is equivalent  to a cutoff of  34.61, 34.61, 34.61 a.u.

 SYSTEM =  ZnO_Bulk                                
 POSCAR =  New structure                           

 Startparameter for this run:
   NWRITE =      2    write-flag & timer
   PREC   = accura    normal or accurate (medium, high low for compatibility)
   ISTART =      1    job   : 0-new  1-cont  2-samecut
   ICHARG =      0    charge: 1-file 2-atom 10-const
   ISPIN  =      1    spin polarized calculation?
   LNONCOLLINEAR =      F non collinear calculations
   LSORBIT =      F    spin-orbit coupling
   INIWAV =      1    electr: 0-lowe 1-rand  2-diag
   LASPH  =      T    aspherical Exc in radial PAW
   METAGGA=      F    non-selfconsistent MetaGGA calc.

 Electronic Relaxation 1
   ENCUT  =  950.0 eV  69.82 Ry    8.36 a.u.  16.90 16.90 16.90*2*pi/ulx,y,z
   ENINI  =  950.0     initial cutoff
   ENAUG  =  605.4 eV  augmentation charge cutoff
   NELM   =    200;   NELMIN=  2; NELMDL=  0     # of ELM steps 
   EDIFF  = 0.1E-07   stopping-criterion for ELM
   LREAL  =      F    real-space projection
   NLSPLINE    = F    spline interpolate recip. space projectors
   LCOMPAT=      F    compatible to vasp.4.4
   GGA_COMPAT  = T    GGA compatible to vasp.4.4-vasp.4.6
   LMAXPAW     = -100 max onsite density
   LMAXMIX     =    2 max onsite mixed and CHGCAR
   VOSKOWN=      0    Vosko Wilk Nusair interpolation
   ROPT   =    0.00000   0.00000   0.00000
 Ionic relaxation
   EDIFFG = -.1E-03   stopping-criterion for IOM
   NSW    =    480    number of steps for IOM
   NBLOCK =      1;   KBLOCK =     40    inner block; outer block 
   IBRION =      1    ionic relax: 0-MD 1-quasi-New 2-CG
   NFREE  =      0    steps in history (QN), initial steepest desc. (CG)
   ISIF   =      3    stress and relaxation
   IWAVPR =     11    prediction:  0-non 1-charg 2-wave 3-comb
   ISYM   =      1    0-nonsym 1-usesym 2-fastsym
   LCORR  =      T    Harris-Foulkes like correction to forces

   POTIM  = 0.5000    time-step for ionic-motion
   TEIN   =    0.0    initial temperature
   TEBEG  =    0.0;   TEEND  =   0.0 temperature during run
   SMASS  =  -3.00    Nose mass-parameter (am)
   estimated Nose-frequenzy (Omega)   =  0.10E-29 period in steps =****** mass=  -0.103E-26a.u.
   SCALEE = 1.0000    scale energy and forces
   NPACO  =    256;   APACO  = 16.0  distance and # of slots for P.C.
   PSTRESS=    0.0 pullay stress

  Mass of Ions in am
   POMASS =  16.00 50.94208.98
  Ionic Valenz
   ZVAL   =   6.00 11.00 15.00
  Atomic Wigner-Seitz radii
   RWIGS  =  -1.00 -1.00 -1.00
  virtual crystal weights 
   VCA    =   1.00  1.00  1.00
   NELECT =     100.0000    total number of electrons
   NUPDOWN=      -1.0000    fix difference up-down

 DOS related values:
   EMIN   =  10.00;   EMAX   =-10.00  energy-range for DOS
   EFERMI =   0.00
   ISMEAR =    -5;   SIGMA  =   0.01  broadening in eV -4-tet -1-fermi 0-gaus

 Electronic relaxation 2 (details)
   IALGO  =     38    algorithm
   LDIAG  =      T    sub-space diagonalisation (order eigenvalues)
   LSUBROT=      F    optimize rotation matrix (better conditioning)
   TURBO    =      0    0=normal 1=particle mesh
   IRESTART =      0    0=no restart 2=restart with 2 vectors
   NREBOOT  =      0    no. of reboots
   NMIN     =      0    reboot dimension
   EREF     =   0.00    reference energy to select bands
   IMIX   =      1    mixing-type and parameters
     AMIX     =   0.40;   BMIX     =  1.00
     AMIX_MAG =   1.60;   BMIX_MAG =  1.00
     AMIN     =   0.10
     WC   =   100.;   INIMIX=   1;  MIXPRE=   1;  MAXMIX= -45

 Intra band minimization:
   WEIMIN = 0.0010     energy-eigenvalue tresh-hold
   EBREAK =  0.42E-10  absolut break condition
   DEPER  =   0.30     relativ break condition  

   TIME   =   0.30     timestep for ELM

  volume/ion in A,a.u.               =      12.09        81.58
  Fermi-wavevector in a.u.,A,eV,Ry     =   1.446169  2.732863 28.455288  2.091405
  Thomas-Fermi vector in A             =   2.564268
 
 Write flags
   LWAVE        =      T    write WAVECAR
   LDOWNSAMPLE  =      F    k-point downsampling of WAVECAR
   LCHARG       =      F    write CHGCAR
   LVTOT        =      F    write LOCPOT, total local potential
   LVHAR        =      F    write LOCPOT, Hartree potential only
   LELF         =      F    write electronic localiz. function (ELF)
   LORBIT       =      0    0 simple, 1 ext, 2 COOP (PROOUT), +10 PAW based schemes


 Dipole corrections
   LMONO  =      F    monopole corrections only (constant potential shift)
   LDIPOL =      F    correct potential (dipole corrections)
   IDIPOL =      0    1-x, 2-y, 3-z, 4-all directions 
   EPSILON=  1.0000000 bulk dielectric constant

 Exchange correlation treatment:
   GGA     =    PS    GGA type
   LEXCH   =    14    internal setting for exchange type
   VOSKOWN=      0    Vosko Wilk Nusair interpolation
   EXXOEP  =     0    0=HF, 1=EXX-LHF (local Hartree Fock) 2=EXX OEP
   LHFCALC =     T    Hartree Fock is set to
   LSYMGRAD=     F    symmetrize gradient (conserves proper symmetry)
   PRECFOCK=fast      Normal, Fast or Accurate (Low or Medium for compatibility)
   LRHFCALC=     F    long range Hartree Fock
   LRSCOR  =     F    long range correlation only (use DFT for short range part)
   LTHOMAS =     F    Thomas Fermi screening in HF
   LMODELHF=     F    short range full HF, long range fraction AEXX
   ENCUT4O =  -1.0   cutoff for four orbital integrals eV
   LMAXFOCK=     4    L truncation for augmentation on plane wave grid
   LMAXFOCKAE=  -1    L truncation for all-electron charge restoration on plane wave grid
   NMAXFOCKAE=   1    number of basis functions for all-electron charge restoration
   LFOCKAEDFT=     F  apply the AE augmentation even for DFT
   NKREDX  =     1    reduce k-point grid by
   NKREDY  =     1    reduce k-point grid by
   NKREDZ  =     1    reduce k-point grid by
   SHIFTRED=     F    shift reduced grid of Gamma
   HFKIDENT=     F    idential grid for each k-point
   ODDONLY =     F    use only odd q-grid points
   EVENONLY=     F    use only even q-grid points
   HFALPHA =   -1.0000 decay constant for conv. correction
   MCALPHA =    0.0000 extent of test-charge in conv. correction in multipole expansion
   AEXX    =    0.6000 exact exchange contribution
   HFSCREEN=    0.0000 screening length (either q_TF or 0.3 A-1)
   HFSCREENC=   0.0000 screening length for correlation (either q_TF or 0.3 A-1)
   HFRCUT  =    0.0000 spherical cutoff for potential kernel
   ALDAX   =    0.4000 LDA exchange part
   AGGAX   =    0.4000 GGA exchange part
   ALDAC   =    1.0000 LDA correlation
   AGGAC   =    1.0000 GGA correlation
   ENCUTFOCK=  -1.0 apply spherical cutoff to Coloumb kernel
   NBANDSGWLOW=     1    first orbital included in HF term
   NBLOCK_FOCK=    64    blocking factor in FOCK_ACC
 Linear response parameters
   LEPSILON=     F    determine dielectric tensor
   LRPA    =     F    only Hartree local field effects (RPA)
   LNABLA  =     F    use nabla operator in PAW spheres
   LVEL    =     F    velocity operator in full k-point grid
   LINTERFAST=   F  fast interpolation
   KINTER  =     0    interpolate to denser k-point grid
   CSHIFT  =0.1000    complex shift for real part using Kramers Kronig
   OMEGAMAX=  -1.0    maximum frequency
   DEG_THRESHOLD= 0.2000000E-02 threshold for treating states as degnerate
   RTIME   =   -0.100 relaxation time in fs
  (WPLASMAI=    0.000 imaginary part of plasma frequency in eV, 0.658/RTIME)
   DFIELD  = 0.0000000 0.0000000 0.0000000 field for delta impulse in time
 
 Orbital magnetization related:
   ORBITALMAG=     F  switch on orbital magnetization
   LCHIMAG   =     F  perturbation theory with respect to B field
   DQ        =  0.001000  dq finite difference perturbation B field
   LLRAUG    =     F  two centre corrections for induced B field



--------------------------------------------------------------------------------------------------------


 quasi-Newton-method for relaxation of ions
 charge density and potential will be updated during run
 non-spin polarized calculation
 Variant of blocked Davidson
 Davidson routine will perform the subspace rotation
 perform sub-space diagonalisation
    after iterative eigenvector-optimisation
 Kerker-like  mixing scheme
 using additional bands           10
 reciprocal scheme for non local part
 use partial core corrections
 calculate Harris-corrections to forces 
   (improved forces if not selfconsistent)
 use gradient corrections 
 use of overlap-Matrix (Vanderbilt PP)
 Fermi weights with tetrahedron method with Bloechl corrections


--------------------------------------------------------------------------------------------------------


  energy-cutoff  :      950.00
  volume of cell :      145.07
      direct lattice vectors                 reciprocal lattice vectors
     6.725129319 -0.022351780  0.000000703     0.148453973 -0.072823606  0.140181795
     2.961837830  6.037829132 -0.000000745     0.000549556  0.165352876  0.140181738
    -4.843483585 -3.007737830  3.566797433    -0.000000029  0.000000049  0.280363554

  length of vectors
     6.725166463  6.725166463  6.725166468     0.216778217  0.216778217  0.280363554


 
 old parameters found on file WAVECAR:
  energy-cutoff  :      950.00
  volume of cell :      145.08
      direct lattice vectors                 reciprocal lattice vectors
     6.725201150 -0.022499742  0.000000661     0.148450804 -0.072818007  0.140175364
     2.961737057  6.037959122 -0.000000702     0.000553171  0.165347551  0.140175310
    -4.843469092 -3.007728881  3.566961025    -0.000000027  0.000000046  0.280350696

  length of vectors

 
 k-points in units of 2pi/SCALE and weight: Automatic generation                    
   0.00000000  0.00000000  0.00000000       0.016
   0.03711349 -0.01820590  0.03504545       0.125
   0.07422699 -0.03641180  0.07009090       0.062
   0.03725088  0.02313232  0.07009088       0.125
   0.07436438  0.00492642  0.10513633       0.125
  -0.03697610  0.05954412 -0.00000001       0.062
   0.03738827  0.06447054  0.10513632       0.125
   0.07450176  0.04626464  0.14018177       0.031
   0.03725087  0.02313233  0.14018177       0.031
  -0.03697611  0.05954413  0.07009087       0.062
   0.07450176  0.04626465  0.21027265       0.062
  -0.03683872  0.10088235  0.10513631       0.125
  -0.03725089 -0.02313231  0.00000001       0.031
   0.07450175  0.04626466  0.28036354       0.016
 
 k-points in reciprocal lattice and weights: Automatic generation                    
   0.00000000  0.00000000  0.00000000       0.016
   0.25000000  0.00000000 -0.00000000       0.125
   0.50000000  0.00000000 -0.00000000       0.062
   0.25000000  0.25000000  0.00000000       0.125
   0.50000000  0.25000000  0.00000000       0.125
  -0.25000000  0.25000000  0.00000000       0.062
   0.25000000  0.50000000  0.00000000       0.125
   0.50000000  0.50000000  0.00000000       0.031
   0.25000000  0.25000000  0.25000000       0.031
  -0.25000000  0.25000000  0.25000000       0.062
   0.50000000  0.50000000  0.25000000       0.062
  -0.25000000  0.50000000  0.25000000       0.125
  -0.25000000 -0.25000000  0.25000000       0.031
   0.50000000  0.50000000  0.50000000       0.016
 
 position of ions in fractional coordinates (direct lattice) 
   0.70161741  0.34151254  0.63577791
   0.20573460  0.06583943  0.86422203
   0.84151254  0.70573463  0.63989514
   0.56583943  0.20161741  0.86010480
   0.29838259  0.65848746  0.36422209
   0.79426537  0.93416051  0.13577797
   0.15848752  0.29426537  0.36010480
   0.43416054  0.79838259  0.13989514
   0.37500000  0.12500000  0.25000000
   0.62500000  0.87500000  0.75000000
   0.87500000  0.62500000  0.25000000
   0.12500000  0.37500000  0.75000000
 
 position of ions in cartesian coordinates  (Angst):
   2.65059267  0.13405870  2.26769127
  -2.60724769 -2.20642457  3.08250501
   4.65023060  2.31765899  2.28237640
   0.23659792 -1.38228583  3.06781985
   2.19289090  2.87368082  1.29910613
   7.45073088  5.21416373  0.48429238
   0.19325365  0.69008071  1.28442078
   4.60688572  4.39002553  0.49897733
   1.68128233 -0.00558773  0.89169953
   3.16220124  3.01332726  2.67509786
   6.52476590  3.00215094  0.89169951
  -1.68128234  0.00558858  2.67509788
 


--------------------------------------------------------------------------------------------------------


 k-point  1 :   0.0000 0.0000 0.0000  plane waves:    9661
 k-point  2 :   0.2500 0.0000-0.0000  plane waves:    9639
 k-point  3 :   0.5000 0.0000-0.0000  plane waves:    9658
 k-point  4 :   0.2500 0.2500 0.0000  plane waves:    9656
 k-point  5 :   0.5000 0.2500 0.0000  plane waves:    9662
 k-point  6 :  -0.2500 0.2500 0.0000  plane waves:    9622
 k-point  7 :   0.2500 0.5000 0.0000  plane waves:    9662
 k-point  8 :   0.5000 0.5000 0.0000  plane waves:    9634
 k-point  9 :   0.2500 0.2500 0.2500  plane waves:    9632
 k-point 10 :  -0.2500 0.2500 0.2500  plane waves:    9655
 k-point 11 :   0.5000 0.5000 0.2500  plane waves:    9650
 k-point 12 :  -0.2500 0.5000 0.2500  plane waves:    9654
 k-point 13 :  -0.2500-0.2500 0.2500  plane waves:    9657
 k-point 14 :   0.5000 0.5000 0.5000  plane waves:    9684

 maximum and minimum number of plane-waves per node :      1002      947

 maximum number of plane-waves:      9684
 maximum index in each direction: 
   IXMAX=   17   IYMAX=   17   IZMAX=   16
   IXMIN=  -17   IYMIN=  -17   IZMIN=  -17


 parallel 3D FFT for wavefunctions:
    minimum data exchange during FFTs selected (reduces bandwidth)
 parallel 3D FFT for charge:
    minimum data exchange during FFTs selected (reduces bandwidth)


 FFT grid for exact exchange (Hartree Fock) 
  NGX = 40; NGY = 40; NGZ = 40

 
 Radii for the augmentation spheres in the non-local exchange
 for species   1 augmentation radius   0.974 (default was   0.722)
       energy cutoff for augmentation   3800.0
 for species   2 augmentation radius   1.261 (default was   0.934)
       energy cutoff for augmentation   3800.0
 for species   3 augmentation radius   1.466 (default was   1.086)
       energy cutoff for augmentation   3800.0

 real space projection operators:
  total allocation   :       4682.88 KBytes
  max/ min on nodes  :        480.72        460.55

 Maximum index for augmentation-charges in exchange          586
  SETUP_FOCK is finished

 total amount of memory used by VASP MPI-rank0   112962. kBytes
=======================================================================

   base      :      30000. kBytes
   nonl-proj :       6302. kBytes
   fftplans  :      41627. kBytes
   grid      :      19129. kBytes
   one-center:         31. kBytes
   HF        :        129. kBytes
   nonlr-proj:       1821. kBytes
   wavefun   :      13923. kBytes
 
     INWAV:  cpu time    0.8481: real time    0.8648
 charge density for first step will be calculated from the start-wavefunctions


--------------------------------------------------------------------------------------------------------


 Maximum index for augmentation-charges        80852 (set IRDMAX)


--------------------------------------------------------------------------------------------------------


 initial charge from wavefunction
    FEWALD:  cpu time    0.0040: real time    0.0040


--------------------------------------- Iteration      1(   1)  ---------------------------------------


    POTLOK:  cpu time    0.2440: real time    0.2602
    SETDIJ:  cpu time    0.6080: real time    0.6084
     EDDAV:  cpu time  357.3223: real time  357.5499
 BZINTS: Fermi energy:  1.941595;100.000000 electrons
         Band energy:***********;  BLOECHL correction:  0.000000
       DOS:  cpu time    0.0040: real time    0.0047
    CHARGE:  cpu time    0.8641: real time    0.8683
    MIXING:  cpu time    0.0040: real time    0.0041
    --------------------------------------------
      LOOP:  cpu time  359.0464: real time  359.2957

 eigenvalue-minimisations  :   876
 total energy-change (2. order) :-0.1631836E+03  (-0.4260451E-09)
 number of electron     100.0000001 magnetization 
 augmentation part       25.9034581 magnetization 

 Free energy of the ion-electron system (eV)
  ---------------------------------------------------
  alpha Z        PSCENC =       457.84835761
  Ewald energy   TEWEN  =     -7703.28490120
  -Hartree energ DENC   =     -2426.12253735
  -exchange      EXHF   =       767.04554665
  -V(xc)+E(xc)   XCENC  =       168.68011135
  PAW double counting   =     13705.62303277   -13584.13839073
  entropy T*S    EENTRO =         0.00000000
  eigenvalues    EBANDS =     -1475.53184642
  atomic energy  EATOM  =      9926.69705820
  Solvation  Ediel_sol  =         0.00000000
  ---------------------------------------------------
  free energy    TOTEN  =      -163.18356912 eV

  energy without entropy =     -163.18356912  energy(sigma->0) =     -163.18356912
  exchange ACFDT corr.  =        -0.00000000  see jH, gK, PRB 81, 115126


--------------------------------------------------------------------------------------------------------




--------------------------------------- Iteration      1(   2)  ---------------------------------------


    POTLOK:  cpu time    0.2680: real time    0.2652
    SETDIJ:  cpu time    0.6000: real time    0.6013
     EDDAV:  cpu time  274.2331: real time  274.4053
 BZINTS: Fermi energy:  1.941591;100.000000 electrons
         Band energy:***********;  BLOECHL correction:  0.000000
       DOS:  cpu time    0.0000: real time    0.0027
    --------------------------------------------
      LOOP:  cpu time  275.1012: real time  275.2744

 eigenvalue-minimisations  :   840
 total energy-change (2. order) :-0.2328306E-09  (-0.6438717E-10)
 number of electron     100.0000001 magnetization 
 augmentation part       25.9034581 magnetization 

 Free energy of the ion-electron system (eV)
  ---------------------------------------------------
  alpha Z        PSCENC =       457.84835761
  Ewald energy   TEWEN  =     -7703.28490120
  -Hartree energ DENC   =     -2426.12249573
  -exchange      EXHF   =       767.04563873
  -V(xc)+E(xc)   XCENC  =       168.68011503
  PAW double counting   =     13705.62750008   -13584.14287822
  entropy T*S    EENTRO =         0.00000000
  eigenvalues    EBANDS =     -1475.53196362
  atomic energy  EATOM  =      9926.69705820
  Solvation  Ediel_sol  =         0.00000000
  ---------------------------------------------------
  free energy    TOTEN  =      -163.18356912 eV

  energy without entropy =     -163.18356912  energy(sigma->0) =     -163.18356912
  exchange ACFDT corr.  =        -0.00000000  see jH, gK, PRB 81, 115126


--------------------------------------------------------------------------------------------------------




 average (electrostatic) potential at core
  the test charge radii are     0.7215  0.9339  1.0856
  (the norm of the test charge is              1.0000)
       1 -53.8232       2 -53.8232       3 -53.8232       4 -53.8232       5 -53.8232
       6 -53.8232       7 -53.8232       8 -53.8232       9 -34.7274      10 -34.7274
      11 -90.0690      12 -90.0690
 
 
 
 E-fermi :   1.9416     XC(G=0):  -5.5793     alpha+bet :-12.2678


 k-point     1 :       0.0000    0.0000    0.0000
  band No.  band energies     occupation 
      1     -44.4683      2.00000
      2     -44.4683      2.00000
      3     -44.4651      2.00000
      4     -44.4651      2.00000
      5     -44.3985      2.00000
      6     -44.3802      2.00000
      7     -24.0632      2.00000
      8     -23.9463      2.00000
      9     -23.9463      2.00000
     10     -23.9406      2.00000
     11     -23.9274      2.00000
     12     -23.9199      2.00000
     13     -23.9199      2.00000
     14     -23.8405      2.00000
     15     -23.8363      2.00000
     16     -23.8299      2.00000
     17     -21.4777      2.00000
     18     -20.0862      2.00000
     19     -19.6141      2.00000
     20     -19.6141      2.00000
     21     -19.5901      2.00000
     22     -19.3716      2.00000
     23     -19.3716      2.00000
     24     -19.3297      2.00000
     25      -9.6389      2.00000
     26      -8.5186      2.00000
     27      -5.7033      2.00000
     28      -5.0613      2.00000
     29      -4.9468      2.00000
     30      -4.9468      2.00000
     31      -4.3290      2.00000
     32      -3.4867      2.00000
     33      -3.4867      2.00000
     34      -3.2497      2.00000
     35      -3.0812      2.00000
     36      -2.7191      2.00000
     37      -2.7191      2.00000
     38      -2.6883      2.00000
     39      -1.8158      2.00000
     40      -1.7843      2.00000
     41      -1.5304      2.00000
     42      -1.5304      2.00000
     43      -1.3124      2.00000
     44      -1.3124      2.00000
     45      -0.9836      2.00000
     46      -0.5004      2.00000
     47       0.0127      2.00000
     48       0.0127      2.00000
     49       0.6197      2.00000
     50       0.9668      2.00000
     51       9.1256      0.00000
     52       9.6376      0.00000
     53      10.3046      0.00000
     54      10.6111      0.00000
     55      11.0232      0.00000
     56      11.0232      0.00000
     57      11.1263      0.00000
     58      11.2352      0.00000
     59      11.3022      0.00000
     60      11.3022      0.00000

 k-point     2 :       0.2500    0.0000   -0.0000
  band No.  band energies     occupation 
      1     -44.4693      2.00000
      2     -44.4685      2.00000
      3     -44.4653      2.00000
      4     -44.4641      2.00000
      5     -44.3963      2.00000
      6     -44.3817      2.00000
      7     -24.0599      2.00000
      8     -23.9990      2.00000
      9     -23.9665      2.00000
     10     -23.9427      2.00000
     11     -23.9191      2.00000
     12     -23.9054      2.00000
     13     -23.8691      2.00000
     14     -23.8412      2.00000
     15     -23.8368      2.00000
     16     -23.8248      2.00000
     17     -21.2373      2.00000
     18     -20.1253      2.00000
     19     -19.9130      2.00000
     20     -19.6359      2.00000
     21     -19.5980      2.00000
     22     -19.4382      2.00000
     23     -19.3489      2.00000
     24     -19.2368      2.00000
     25      -9.5106      2.00000
     26      -8.6691      2.00000
     27      -5.4383      2.00000
     28      -5.2652      2.00000
     29      -4.8311      2.00000
     30      -4.3970      2.00000
     31      -4.2703      2.00000
     32      -3.6459      2.00000
     33      -3.5158      2.00000
     34      -3.3126      2.00000
     35      -3.2033      2.00000
     36      -2.9149      2.00000
     37      -2.8502      2.00000
     38      -2.4242      2.00000
     39      -2.2185      2.00000
     40      -2.0762      2.00000
     41      -1.8271      2.00000
     42      -1.3800      2.00000
     43      -1.2267      2.00000
     44      -1.0752      2.00000
     45      -0.8008      2.00000
     46      -0.4695      2.00000
     47      -0.0458      2.00000
     48       0.0208      2.00000
     49       0.5700      2.00000
     50       1.2947      2.00000
     51       9.1428      0.00000
     52       9.6006      0.00000
     53       9.9050      0.00000
     54       9.9936      0.00000
     55      10.6050      0.00000
     56      10.9045      0.00000
     57      11.1266      0.00000
     58      11.4403      0.00000
     59      11.5927      0.00000
     60      11.9564      0.00000

 k-point     3 :       0.5000    0.0000   -0.0000
  band No.  band energies     occupation 
      1     -44.4700      2.00000
      2     -44.4688      2.00000
      3     -44.4656      2.00000
      4     -44.4634      2.00000
      5     -44.3934      2.00000
      6     -44.3840      2.00000
      7     -24.0522      2.00000
      8     -24.0310      2.00000
      9     -23.9796      2.00000
     10     -23.9413      2.00000
     11     -23.9113      2.00000
     12     -23.9017      2.00000
     13     -23.8453      2.00000
     14     -23.8426      2.00000
     15     -23.8303      2.00000
     16     -23.8239      2.00000
     17     -20.6754      2.00000
     18     -20.5568      2.00000
     19     -20.1189      2.00000
     20     -19.7087      2.00000
     21     -19.6177      2.00000
     22     -19.4019      2.00000
     23     -19.2817      2.00000
     24     -19.2501      2.00000
     25      -9.3064      2.00000
     26      -8.8876      2.00000
     27      -5.3369      2.00000
     28      -4.8142      2.00000
     29      -4.6672      2.00000
     30      -4.4595      2.00000
     31      -4.2082      2.00000
     32      -4.0973      2.00000
     33      -3.4202      2.00000
     34      -3.1684      2.00000
     35      -3.1644      2.00000
     36      -3.0298      2.00000
     37      -2.7853      2.00000
     38      -2.7121      2.00000
     39      -2.4402      2.00000
     40      -2.1542      2.00000
     41      -1.5698      2.00000
     42      -1.4949      2.00000
     43      -1.1919      2.00000
     44      -0.9985      2.00000
     45      -0.6669      2.00000
     46      -0.6196      2.00000
     47      -0.3569      2.00000
     48      -0.2278      2.00000
     49       0.8109      2.00000
     50       1.7483      2.00000
     51       8.8586      0.00000
     52       9.4491      0.00000
     53       9.8900      0.00000
     54      10.0296      0.00000
     55      10.5219      0.00000
     56      10.7125      0.00000
     57      11.1147      0.00000
     58      11.2745      0.00000
     59      11.6419      0.00000
     60      11.8290      0.00000

 k-point     4 :       0.2500    0.2500    0.0000
  band No.  band energies     occupation 
      1     -44.4696      2.00000
      2     -44.4694      2.00000
      3     -44.4645      2.00000
      4     -44.4642      2.00000
      5     -44.3934      2.00000
      6     -44.3842      2.00000
      7     -24.0606      2.00000
      8     -24.0292      2.00000
      9     -23.9919      2.00000
     10     -23.9411      2.00000
     11     -23.9149      2.00000
     12     -23.8720      2.00000
     13     -23.8622      2.00000
     14     -23.8425      2.00000
     15     -23.8322      2.00000
     16     -23.8236      2.00000
     17     -20.9419      2.00000
     18     -20.1787      2.00000
     19     -19.9653      2.00000
     20     -19.8820      2.00000
     21     -19.4994      2.00000
     22     -19.4677      2.00000
     23     -19.4097      2.00000
     24     -19.2490      2.00000
     25      -9.3275      2.00000
     26      -8.8079      2.00000
     27      -5.2876      2.00000
     28      -5.0357      2.00000
     29      -4.8509      2.00000
     30      -4.5325      2.00000
     31      -4.1616      2.00000
     32      -3.7706      2.00000
     33      -3.4445      2.00000
     34      -3.2435      2.00000
     35      -3.1477      2.00000
     36      -2.8843      2.00000
     37      -2.8288      2.00000
     38      -2.5600      2.00000
     39      -2.4870      2.00000
     40      -2.3336      2.00000
     41      -2.0943      2.00000
     42      -1.2378      2.00000
     43      -1.0981      2.00000
     44      -1.0043      2.00000
     45      -0.6971      2.00000
     46      -0.4462      2.00000
     47      -0.2528      2.00000
     48       0.0514      2.00000
     49       0.6236      2.00000
     50       1.4916      2.00000
     51       9.2297      0.00000
     52       9.4771      0.00000
     53       9.9473      0.00000
     54      10.2402      0.00000
     55      10.3466      0.00000
     56      10.6022      0.00000
     57      11.2579      0.00000
     58      11.4284      0.00000
     59      11.5847      0.00000
     60      11.6620      0.00000

 k-point     5 :       0.5000    0.2500    0.0000
  band No.  band energies     occupation 
      1     -44.4693      2.00000
      2     -44.4682      2.00000
      3     -44.4661      2.00000
      4     -44.4645      2.00000
      5     -44.3919      2.00000
      6     -44.3852      2.00000
      7     -24.0631      2.00000
      8     -24.0443      2.00000
      9     -23.9784      2.00000
     10     -23.9427      2.00000
     11     -23.9117      2.00000
     12     -23.8815      2.00000
     13     -23.8584      2.00000
     14     -23.8428      2.00000
     15     -23.8329      2.00000
     16     -23.8258      2.00000
     17     -20.5240      2.00000
     18     -20.3497      2.00000
     19     -20.0673      2.00000
     20     -19.7791      2.00000
     21     -19.6153      2.00000
     22     -19.5807      2.00000
     23     -19.3821      2.00000
     24     -19.3357      2.00000
     25      -9.1932      2.00000
     26      -8.9012      2.00000
     27      -5.2462      2.00000
     28      -5.1500      2.00000
     29      -4.8269      2.00000
     30      -4.7054      2.00000
     31      -4.1190      2.00000
     32      -3.6183      2.00000
     33      -3.4866      2.00000
     34      -3.3825      2.00000
     35      -3.1027      2.00000
     36      -3.0357      2.00000
     37      -2.7507      2.00000
     38      -2.5767      2.00000
     39      -2.4408      2.00000
     40      -1.9822      2.00000
     41      -1.6862      2.00000
     42      -1.4619      2.00000
     43      -1.2323      2.00000
     44      -0.9341      2.00000
     45      -0.6982      2.00000
     46      -0.6277      2.00000
     47      -0.4644      2.00000
     48      -0.0174      2.00000
     49       0.7697      2.00000
     50       1.8115      2.00000
     51       9.1449      0.00000
     52       9.5298      0.00000
     53       9.9267      0.00000
     54       9.9606      0.00000
     55      10.2561      0.00000
     56      10.5690      0.00000
     57      10.9417      0.00000
     58      11.2396      0.00000
     59      11.6705      0.00000
     60      11.7384      0.00000

 k-point     6 :      -0.2500    0.2500    0.0000
  band No.  band energies     occupation 
      1     -44.4682      2.00000
      2     -44.4680      2.00000
      3     -44.4658      2.00000
      4     -44.4656      2.00000
      5     -44.3953      2.00000
      6     -44.3822      2.00000
      7     -24.0694      2.00000
      8     -24.0017      2.00000
      9     -23.9556      2.00000
     10     -23.9371      2.00000
     11     -23.9313      2.00000
     12     -23.8962      2.00000
     13     -23.8839      2.00000
     14     -23.8374      2.00000
     15     -23.8347      2.00000
     16     -23.8286      2.00000
     17     -21.0741      2.00000
     18     -19.9913      2.00000
     19     -19.8156      2.00000
     20     -19.7553      2.00000
     21     -19.5989      2.00000
     22     -19.5936      2.00000
     23     -19.4767      2.00000
     24     -19.2678      2.00000
     25      -9.4449      2.00000
     26      -8.6962      2.00000
     27      -5.4692      2.00000
     28      -5.3421      2.00000
     29      -4.8758      2.00000
     30      -4.7199      2.00000
     31      -3.9600      2.00000
     32      -3.5119      2.00000
     33      -3.2778      2.00000
     34      -3.1310      2.00000
     35      -3.0134      2.00000
     36      -2.8495      2.00000
     37      -2.8387      2.00000
     38      -2.6935      2.00000
     39      -2.5926      2.00000
     40      -2.0836      2.00000
     41      -1.7765      2.00000
     42      -1.7445      2.00000
     43      -1.2803      2.00000
     44      -0.8150      2.00000
     45      -0.5157      2.00000
     46      -0.4994      2.00000
     47      -0.3400      2.00000
     48       0.1598      2.00000
     49       0.4138      2.00000
     50       1.7497      2.00000
     51       9.2714      0.00000
     52       9.4569      0.00000
     53       9.5575      0.00000
     54      10.0846      0.00000
     55      10.5510      0.00000
     56      10.8786      0.00000
     57      11.1336      0.00000
     58      11.2919      0.00000
     59      11.4634      0.00000
     60      11.7839      0.00000

 k-point     7 :       0.2500    0.5000    0.0000
  band No.  band energies     occupation 
      1     -44.4692      2.00000
      2     -44.4683      2.00000
      3     -44.4660      2.00000
      4     -44.4646      2.00000
      5     -44.3918      2.00000
      6     -44.3853      2.00000
      7     -24.0716      2.00000
      8     -24.0318      2.00000
      9     -23.9801      2.00000
     10     -23.9428      2.00000
     11     -23.9156      2.00000
     12     -23.8844      2.00000
     13     -23.8568      2.00000
     14     -23.8367      2.00000
     15     -23.8319      2.00000
     16     -23.8295      2.00000
     17     -20.5613      2.00000
     18     -20.3270      2.00000
     19     -20.0327      2.00000
     20     -19.7598      2.00000
     21     -19.6709      2.00000
     22     -19.5605      2.00000
     23     -19.3787      2.00000
     24     -19.3432      2.00000
     25      -9.2201      2.00000
     26      -8.8794      2.00000
     27      -5.3985      2.00000
     28      -5.1499      2.00000
     29      -4.8284      2.00000
     30      -4.5465      2.00000
     31      -3.9300      2.00000
     32      -3.6248      2.00000
     33      -3.3408      2.00000
     34      -3.2958      2.00000
     35      -3.1139      2.00000
     36      -3.0314      2.00000
     37      -2.8503      2.00000
     38      -2.6810      2.00000
     39      -2.4937      2.00000
     40      -2.0515      2.00000
     41      -1.8972      2.00000
     42      -1.6387      2.00000
     43      -1.4971      2.00000
     44      -0.7846      2.00000
     45      -0.5729      2.00000
     46      -0.4265      2.00000
     47      -0.3622      2.00000
     48      -0.1379      2.00000
     49       0.9624      2.00000
     50       1.7587      2.00000
     51       8.9978      0.00000
     52       9.7061      0.00000
     53       9.7474      0.00000
     54      10.0490      0.00000
     55      10.5354      0.00000
     56      10.7243      0.00000
     57      10.9333      0.00000
     58      11.2676      0.00000
     59      11.4265      0.00000
     60      11.7416      0.00000

 k-point     8 :       0.5000    0.5000    0.0000
  band No.  band energies     occupation 
      1     -44.4673      2.00000
      2     -44.4673      2.00000
      3     -44.4668      2.00000
      4     -44.4667      2.00000
      5     -44.3884      2.00000
      6     -44.3884      2.00000
      7     -24.0686      2.00000
      8     -24.0686      2.00000
      9     -23.9457      2.00000
     10     -23.9457      2.00000
     11     -23.9118      2.00000
     12     -23.9118      2.00000
     13     -23.8433      2.00000
     14     -23.8432      2.00000
     15     -23.8322      2.00000
     16     -23.8322      2.00000
     17     -20.1663      2.00000
     18     -20.1663      2.00000
     19     -19.9198      2.00000
     20     -19.9198      2.00000
     21     -19.7895      2.00000
     22     -19.7895      2.00000
     23     -19.4529      2.00000
     24     -19.4529      2.00000
     25      -8.9978      2.00000
     26      -8.9978      2.00000
     27      -5.1812      2.00000
     28      -5.1812      2.00000
     29      -5.0609      2.00000
     30      -5.0609      2.00000
     31      -3.9468      2.00000
     32      -3.9468      2.00000
     33      -3.0237      2.00000
     34      -3.0237      2.00000
     35      -2.8544      2.00000
     36      -2.8544      2.00000
     37      -2.7143      2.00000
     38      -2.7143      2.00000
     39      -2.2565      2.00000
     40      -2.2564      2.00000
     41      -1.9282      2.00000
     42      -1.9282      2.00000
     43      -1.1865      2.00000
     44      -1.1865      2.00000
     45      -0.5221      2.00000
     46      -0.5221      2.00000
     47      -0.2278      2.00000
     48      -0.2278      2.00000
     49       1.4511      2.00000
     50       1.4511      2.00000
     51       9.7301      0.00000
     52       9.7301      0.00000
     53       9.8306      0.00000
     54       9.8306      0.00000
     55      10.2590      0.00000
     56      10.2590      0.00000
     57      10.8674      0.00000
     58      10.8674      0.00000
     59      11.6606      0.00000
     60      11.6606      0.00000

 k-point     9 :       0.2500    0.2500    0.2500
  band No.  band energies     occupation 
      1     -44.4673      2.00000
      2     -44.4673      2.00000
      3     -44.4668      2.00000
      4     -44.4667      2.00000
      5     -44.3884      2.00000
      6     -44.3884      2.00000
      7     -24.0665      2.00000
      8     -24.0665      2.00000
      9     -23.9601      2.00000
     10     -23.9601      2.00000
     11     -23.8930      2.00000
     12     -23.8930      2.00000
     13     -23.8492      2.00000
     14     -23.8492      2.00000
     15     -23.8328      2.00000
     16     -23.8328      2.00000
     17     -20.1195      2.00000
     18     -20.1195      2.00000
     19     -20.0313      2.00000
     20     -20.0313      2.00000
     21     -19.6985      2.00000
     22     -19.6985      2.00000
     23     -19.4792      2.00000
     24     -19.4792      2.00000
     25      -8.9977      2.00000
     26      -8.9976      2.00000
     27      -5.1337      2.00000
     28      -5.1337      2.00000
     29      -5.1133      2.00000
     30      -5.1133      2.00000
     31      -3.8731      2.00000
     32      -3.8731      2.00000
     33      -3.2468      2.00000
     34      -3.2468      2.00000
     35      -2.8720      2.00000
     36      -2.8719      2.00000
     37      -2.5749      2.00000
     38      -2.5749      2.00000
     39      -2.1400      2.00000
     40      -2.1400      2.00000
     41      -2.0242      2.00000
     42      -2.0242      2.00000
     43      -1.0878      2.00000
     44      -1.0878      2.00000
     45      -0.6185      2.00000
     46      -0.6185      2.00000
     47      -0.2187      2.00000
     48      -0.2187      2.00000
     49       1.4493      2.00000
     50       1.4493      2.00000
     51       9.7317      0.00000
     52       9.7317      0.00000
     53       9.7809      0.00000
     54       9.7809      0.00000
     55      10.3015      0.00000
     56      10.3015      0.00000
     57      10.8842      0.00000
     58      10.8843      0.00000
     59      11.7178      0.00000
     60      11.7178      0.00000

 k-point    10 :      -0.2500    0.2500    0.2500
  band No.  band energies     occupation 
      1     -44.4700      2.00000
      2     -44.4688      2.00000
      3     -44.4656      2.00000
      4     -44.4634      2.00000
      5     -44.3934      2.00000
      6     -44.3840      2.00000
      7     -24.0592      2.00000
      8     -24.0053      2.00000
      9     -23.9835      2.00000
     10     -23.9789      2.00000
     11     -23.8990      2.00000
     12     -23.8710      2.00000
     13     -23.8609      2.00000
     14     -23.8446      2.00000
     15     -23.8322      2.00000
     16     -23.8246      2.00000
     17     -20.7408      2.00000
     18     -20.3541      2.00000
     19     -20.2960      2.00000
     20     -19.6676      2.00000
     21     -19.6217      2.00000
     22     -19.3588      2.00000
     23     -19.3233      2.00000
     24     -19.2488      2.00000
     25      -9.3070      2.00000
     26      -8.8879      2.00000
     27      -5.2936      2.00000
     28      -5.0106      2.00000
     29      -4.6245      2.00000
     30      -4.4548      2.00000
     31      -4.1719      2.00000
     32      -3.7530      2.00000
     33      -3.4893      2.00000
     34      -3.3849      2.00000
     35      -3.3139      2.00000
     36      -2.8835      2.00000
     37      -2.7362      2.00000
     38      -2.5869      2.00000
     39      -2.3993      2.00000
     40      -2.3323      2.00000
     41      -1.8702      2.00000
     42      -1.3965      2.00000
     43      -1.0632      2.00000
     44      -1.0202      2.00000
     45      -0.6995      2.00000
     46      -0.5409      2.00000
     47      -0.3226      2.00000
     48      -0.1423      2.00000
     49       0.6736      2.00000
     50       1.8012      2.00000
     51       8.8618      0.00000
     52       9.4489      0.00000
     53       9.8680      0.00000
     54      10.0074      0.00000
     55      10.3723      0.00000
     56      10.9173      0.00000
     57      11.0247      0.00000
     58      11.4382      0.00000
     59      11.6283      0.00000
     60      11.8047      0.00000

 k-point    11 :       0.5000    0.5000    0.2500
  band No.  band energies     occupation 
      1     -44.4704      2.00000
      2     -44.4703      2.00000
      3     -44.4636      2.00000
      4     -44.4633      2.00000
      5     -44.3889      2.00000
      6     -44.3887      2.00000
      7     -24.0564      2.00000
      8     -24.0409      2.00000
      9     -23.9960      2.00000
     10     -23.9862      2.00000
     11     -23.8719      2.00000
     12     -23.8669      2.00000
     13     -23.8533      2.00000
     14     -23.8407      2.00000
     15     -23.8281      2.00000
     16     -23.8241      2.00000
     17     -20.6189      2.00000
     18     -20.5636      2.00000
     19     -20.0443      2.00000
     20     -19.9559      2.00000
     21     -19.4399      2.00000
     22     -19.4117      2.00000
     23     -19.3483      2.00000
     24     -19.2313      2.00000
     25      -9.0958      2.00000
     26      -9.0331      2.00000
     27      -4.9319      2.00000
     28      -4.7865      2.00000
     29      -4.7236      2.00000
     30      -4.6169      2.00000
     31      -3.9686      2.00000
     32      -3.8675      2.00000
     33      -3.7404      2.00000
     34      -3.5684      2.00000
     35      -3.1875      2.00000
     36      -3.1738      2.00000
     37      -2.7790      2.00000
     38      -2.6605      2.00000
     39      -2.6311      2.00000
     40      -2.1678      2.00000
     41      -1.9683      2.00000
     42      -1.6115      2.00000
     43      -1.0364      2.00000
     44      -0.7834      2.00000
     45      -0.6093      2.00000
     46      -0.2501      2.00000
     47      -0.2244      2.00000
     48      -0.1125      2.00000
     49       0.8118      2.00000
     50       1.1453      2.00000
     51       9.2502      0.00000
     52       9.8374      0.00000
     53       9.8503      0.00000
     54      10.1541      0.00000
     55      10.3660      0.00000
     56      10.5477      0.00000
     57      11.0754      0.00000
     58      11.4878      0.00000
     59      11.7414      0.00000
     60      11.9424      0.00000

 k-point    12 :      -0.2500    0.5000    0.2500
  band No.  band energies     occupation 
      1     -44.4709      2.00000
      2     -44.4706      2.00000
      3     -44.4633      2.00000
      4     -44.4625      2.00000
      5     -44.3923      2.00000
      6     -44.3858      2.00000
      7     -24.0485      2.00000
      8     -24.0297      2.00000
      9     -24.0088      2.00000
     10     -23.9863      2.00000
     11     -23.8746      2.00000
     12     -23.8657      2.00000
     13     -23.8494      2.00000
     14     -23.8413      2.00000
     15     -23.8273      2.00000
     16     -23.8211      2.00000
     17     -20.9675      2.00000
     18     -20.5208      2.00000
     19     -20.0807      2.00000
     20     -19.7214      2.00000
     21     -19.4669      2.00000
     22     -19.3426      2.00000
     23     -19.2590      2.00000
     24     -19.2143      2.00000
     25      -9.2541      2.00000
     26      -8.9145      2.00000
     27      -5.1433      2.00000
     28      -4.8108      2.00000
     29      -4.6174      2.00000
     30      -4.3788      2.00000
     31      -3.9681      2.00000
     32      -3.8378      2.00000
     33      -3.8165      2.00000
     34      -3.4122      2.00000
     35      -3.3583      2.00000
     36      -3.0382      2.00000
     37      -2.9044      2.00000
     38      -2.6011      2.00000
     39      -2.3673      2.00000
     40      -2.2626      2.00000
     41      -2.1299      2.00000
     42      -1.8493      2.00000
     43      -1.1603      2.00000
     44      -0.7275      2.00000
     45      -0.4673      2.00000
     46      -0.2859      2.00000
     47      -0.1261      2.00000
     48      -0.0239      2.00000
     49       0.6804      2.00000
     50       0.9182      2.00000
     51       9.4092      0.00000
     52       9.6204      0.00000
     53       9.8789      0.00000
     54      10.2449      0.00000
     55      10.6278      0.00000
     56      10.7618      0.00000
     57      11.0442      0.00000
     58      11.4391      0.00000
     59      11.8184      0.00000
     60      11.9968      0.00000

 k-point    13 :      -0.2500   -0.2500    0.2500
  band No.  band energies     occupation 
      1     -44.4703      2.00000
      2     -44.4703      2.00000
      3     -44.4630      2.00000
      4     -44.4630      2.00000
      5     -44.3958      2.00000
      6     -44.3829      2.00000
      7     -24.0554      2.00000
      8     -24.0003      2.00000
      9     -24.0003      2.00000
     10     -23.9878      2.00000
     11     -23.8856      2.00000
     12     -23.8618      2.00000
     13     -23.8618      2.00000
     14     -23.8490      2.00000
     15     -23.8363      2.00000
     16     -23.8195      2.00000
     17     -21.3303      2.00000
     18     -20.4064      2.00000
     19     -19.7157      2.00000
     20     -19.7157      2.00000
     21     -19.4568      2.00000
     22     -19.3307      2.00000
     23     -19.2698      2.00000
     24     -19.2698      2.00000
     25      -9.4598      2.00000
     26      -8.6998      2.00000
     27      -5.3364      2.00000
     28      -4.9184      2.00000
     29      -4.9184      2.00000
     30      -4.6710      2.00000
     31      -4.2361      2.00000
     32      -3.5251      2.00000
     33      -3.5251      2.00000
     34      -3.3341      2.00000
     35      -2.9779      2.00000
     36      -2.9697      2.00000
     37      -2.7481      2.00000
     38      -2.7481      2.00000
     39      -2.1957      2.00000
     40      -2.1414      2.00000
     41      -2.1414      2.00000
     42      -1.9839      2.00000
     43      -1.3512      2.00000
     44      -0.5154      2.00000
     45      -0.5154      2.00000
     46      -0.1987      2.00000
     47      -0.0419      2.00000
     48      -0.0419      2.00000
     49       0.3798      2.00000
     50       0.7432      2.00000
     51       9.3573      0.00000
     52       9.8576      0.00000
     53      10.1433      0.00000
     54      10.5087      0.00000
     55      10.5087      0.00000
     56      10.5942      0.00000
     57      11.4587      0.00000
     58      11.7181      0.00000
     59      11.7181      0.00000
     60      11.7359      0.00000

 k-point    14 :       0.5000    0.5000    0.5000
  band No.  band energies     occupation 
      1     -44.4715      2.00000
      2     -44.4715      2.00000
      3     -44.4618      2.00000
      4     -44.4618      2.00000
      5     -44.3894      2.00000
      6     -44.3894      2.00000
      7     -24.0303      2.00000
      8     -24.0303      2.00000
      9     -24.0261      2.00000
     10     -24.0261      2.00000
     11     -23.8619      2.00000
     12     -23.8619      2.00000
     13     -23.8318      2.00000
     14     -23.8318      2.00000
     15     -23.8226      2.00000
     16     -23.8226      2.00000
     17     -20.9268      2.00000
     18     -20.9268      2.00000
     19     -19.7839      2.00000
     20     -19.7839      2.00000
     21     -19.3552      2.00000
     22     -19.3552      2.00000
     23     -19.2013      2.00000
     24     -19.2013      2.00000
     25      -9.0768      2.00000
     26      -9.0768      2.00000
     27      -4.8852      2.00000
     28      -4.8852      2.00000
     29      -4.4321      2.00000
     30      -4.4321      2.00000
     31      -3.9364      2.00000
     32      -3.9364      2.00000
     33      -3.5457      2.00000
     34      -3.5457      2.00000
     35      -3.1183      2.00000
     36      -3.1183      2.00000
     37      -2.9398      2.00000
     38      -2.9398      2.00000
     39      -2.5397      2.00000
     40      -2.5397      2.00000
     41      -2.2112      2.00000
     42      -2.2112      2.00000
     43      -0.6544      2.00000
     44      -0.6544      2.00000
     45      -0.1494      2.00000
     46      -0.1494      2.00000
     47      -0.0637      2.00000
     48      -0.0637      2.00000
     49       0.3555      2.00000
     50       0.3556      2.00000
     51      10.0037      0.00000
     52      10.0037      0.00000
     53      10.0507      0.00000
     54      10.0508      0.00000
     55      10.2411      0.00000
     56      10.2411      0.00000
     57      11.9717      0.00000
     58      11.9717      0.00000
     59      12.1356      0.00000
     60      12.1356      0.00000


--------------------------------------------------------------------------------------------------------


 soft charge-density along one line, spin component           1
         0         1         2         3         4         5         6         7         8         9
 total charge-density along one line
 
 pseudopotential strength for first ion, spin component:           1
  9.418 -11.251   0.007   0.033   0.028  -0.008  -0.041  -0.035
-11.251  13.436  -0.009  -0.042  -0.036   0.011   0.052   0.045
  0.007  -0.009  -5.388   0.001  -0.006   5.852  -0.001   0.008
  0.033  -0.042   0.001  -5.476  -0.032  -0.001   5.970   0.042
  0.028  -0.036  -0.006  -0.032  -5.450   0.008   0.042   5.935
 -0.008   0.011   5.852  -0.001   0.008  -5.980   0.002  -0.011
 -0.041   0.052  -0.001   5.970   0.042   0.002  -6.138  -0.057
 -0.035   0.045   0.008   0.042   5.935  -0.011  -0.057  -6.092
 total augmentation occupancy for first ion, spin component:           1
  2.756   0.421  -0.022  -0.130  -0.106  -0.009  -0.051  -0.043
  0.421   0.091  -0.020  -0.100  -0.086  -0.004  -0.021  -0.019
 -0.022  -0.020   2.214   0.016   0.004   0.268   0.002   0.005
 -0.130  -0.100   0.016   2.314   0.067   0.002   0.359   0.037
 -0.106  -0.086   0.004   0.067   2.275   0.005   0.037   0.332
 -0.009  -0.004   0.268   0.002   0.005   0.035   0.001   0.002
 -0.051  -0.021   0.002   0.359   0.037   0.001   0.064   0.012
 -0.043  -0.019   0.005   0.037   0.332   0.002   0.012   0.055


------------------------ aborting loop because EDIFF is reached ----------------------------------------


    CHARGE:  cpu time    0.8721: real time    0.8706
    FORLOC:  cpu time    0.0200: real time    0.0232
    FORHF :  cpu time  361.7026: real time  361.9302
    FORNL :  cpu time    2.6082: real time    2.6089
    STRESS:  cpu time    8.1645: real time    8.1728
    FORCOR:  cpu time    0.2360: real time    0.2362
    FORHAR:  cpu time    0.0640: real time    0.0628
    MIXING:  cpu time    0.0040: real time    0.0024
    OFIELD:  cpu time    0.0000: real time    0.0001

  FORCE on cell =-STRESS in cart. coord.  units (eV):
  Direction    XX          YY          ZZ          XY          YZ          ZX
  --------------------------------------------------------------------------------------
  Alpha Z   457.84836   457.84836   457.84836
  Ewald   -2587.08240 -2565.02818 -2551.18656   -22.29210     0.00006    -0.00014
  Hartree   803.00336   809.51587   813.60353    -6.58260    -0.00000    -0.00000
  E(xc)    -207.31555  -207.40489  -207.46097     0.09030    -0.00000    -0.00000
  Local     -72.46420   -98.91667  -115.51967    26.73744    -0.00009    -0.00003
  n-local   806.09394   806.39502   807.34567    -0.86867     0.11655     0.02973
  augment   333.34025   333.02487   332.82711     0.31881     0.00121     0.00079
  Kinetic  1637.17407  1636.55960  1635.60458     1.73396    -0.35203    -0.30331
  Fock    -1170.78419 -1172.11385 -1172.74782     1.05405    -0.01402    -0.08357
  -------------------------------------------------------------------------------------
  Total       0.00308     0.00261     0.00231     0.00048     0.00000     0.00000
  in kB       0.03404     0.02880     0.02551     0.00530     0.00001     0.00001
  external pressure =        0.03 kB  Pullay stress =        0.00 kB


 VOLUME and BASIS-vectors are now :
 -----------------------------------------------------------------------------
  energy-cutoff  :      950.00
  volume of cell :      145.07
      direct lattice vectors                 reciprocal lattice vectors
     6.725129319 -0.022351780  0.000000703     0.148453973 -0.072823606  0.140181795
     2.961837830  6.037829132 -0.000000745     0.000549556  0.165352876  0.140181738
    -4.843483585 -3.007737830  3.566797433    -0.000000029  0.000000049  0.280363554

  length of vectors
     6.725166463  6.725166463  6.725166468     0.216778217  0.216778217  0.280363554


 FORCES acting on ions
    electron-ion (+dipol)            ewald-force                    non-local-force                 convergence-correction
 -----------------------------------------------------------------------------------------------
   -.792E+02 -.106E+02 -.995E+02   0.904E+02 0.132E+02 0.113E+03   -.762E+01 -.178E+01 -.902E+01   -.239E-04 0.724E-05 -.360E-04
[...]
     10     -23.9792      2.00000
     11     -23.8993      2.00000
     12     -23.8714      2.00000
     13     -23.8612      2.00000
     14     -23.8450      2.00000
     15     -23.8325      2.00000
     16     -23.8250      2.00000
     17     -20.7409      2.00000
     18     -20.3542      2.00000
     19     -20.2961      2.00000
     20     -19.6678      2.00000
     21     -19.6218      2.00000
     22     -19.3590      2.00000
     23     -19.3235      2.00000
     24     -19.2490      2.00000
     25      -9.3072      2.00000
     26      -8.8881      2.00000
     27      -5.2936      2.00000
     28      -5.0107      2.00000
     29      -4.6246      2.00000
     30      -4.4549      2.00000
     31      -4.1720      2.00000
     32      -3.7532      2.00000
     33      -3.4895      2.00000
     34      -3.3850      2.00000
     35      -3.3141      2.00000
     36      -2.8837      2.00000
     37      -2.7363      2.00000
     38      -2.5870      2.00000
     39      -2.3995      2.00000
     40      -2.3325      2.00000
     41      -1.8704      2.00000
     42      -1.3967      2.00000
     43      -1.0633      2.00000
     44      -1.0205      2.00000
     45      -0.6997      2.00000
     46      -0.5411      2.00000
     47      -0.3229      2.00000
     48      -0.1425      2.00000
     49       0.6733      2.00000
     50       1.8008      2.00000
     51       8.8616      0.00000
     52       9.4487      0.00000
     53       9.8678      0.00000
     54      10.0072      0.00000
     55      10.3721      0.00000
     56      10.9171      0.00000
     57      11.0246      0.00000
     58      11.4380      0.00000
     59      11.6282      0.00000
     60      11.8045      0.00000

 k-point    11 :       0.5000    0.5000    0.2500
  band No.  band energies     occupation 
      1     -44.4706      2.00000
      2     -44.4704      2.00000
      3     -44.4637      2.00000
      4     -44.4635      2.00000
      5     -44.3890      2.00000
      6     -44.3888      2.00000
      7     -24.0567      2.00000
      8     -24.0412      2.00000
      9     -23.9963      2.00000
     10     -23.9865      2.00000
     11     -23.8722      2.00000
     12     -23.8672      2.00000
     13     -23.8537      2.00000
     14     -23.8411      2.00000
     15     -23.8285      2.00000
     16     -23.8245      2.00000
     17     -20.6190      2.00000
     18     -20.5637      2.00000
     19     -20.0444      2.00000
     20     -19.9560      2.00000
     21     -19.4401      2.00000
     22     -19.4118      2.00000
     23     -19.3485      2.00000
     24     -19.2315      2.00000
     25      -9.0960      2.00000
     26      -9.0333      2.00000
     27      -4.9320      2.00000
     28      -4.7866      2.00000
     29      -4.7237      2.00000
     30      -4.6170      2.00000
     31      -3.9688      2.00000
     32      -3.8677      2.00000
     33      -3.7405      2.00000
     34      -3.5686      2.00000
     35      -3.1877      2.00000
     36      -3.1739      2.00000
     37      -2.7791      2.00000
     38      -2.6607      2.00000
     39      -2.6313      2.00000
     40      -2.1680      2.00000
     41      -1.9684      2.00000
     42      -1.6117      2.00000
     43      -1.0366      2.00000
     44      -0.7836      2.00000
     45      -0.6095      2.00000
     46      -0.2503      2.00000
     47      -0.2246      2.00000
     48      -0.1127      2.00000
     49       0.8114      2.00000
     50       1.1449      2.00000
     51       9.2500      0.00000
     52       9.8371      0.00000
     53       9.8501      0.00000
     54      10.1540      0.00000
     55      10.3659      0.00000
     56      10.5476      0.00000
     57      11.0752      0.00000
     58      11.4876      0.00000
     59      11.7412      0.00000
     60      11.9422      0.00000

 k-point    12 :      -0.2500    0.5000    0.2500
  band No.  band energies     occupation 
      1     -44.4710      2.00000
      2     -44.4707      2.00000
      3     -44.4635      2.00000
      4     -44.4627      2.00000
      5     -44.3924      2.00000
      6     -44.3859      2.00000
      7     -24.0488      2.00000
      8     -24.0300      2.00000
      9     -24.0091      2.00000
     10     -23.9866      2.00000
     11     -23.8749      2.00000
     12     -23.8661      2.00000
     13     -23.8498      2.00000
     14     -23.8417      2.00000
     15     -23.8276      2.00000
     16     -23.8215      2.00000
     17     -20.9676      2.00000
     18     -20.5210      2.00000
     19     -20.0808      2.00000
     20     -19.7215      2.00000
     21     -19.4670      2.00000
     22     -19.3429      2.00000
     23     -19.2591      2.00000
     24     -19.2145      2.00000
     25      -9.2542      2.00000
     26      -8.9147      2.00000
     27      -5.1434      2.00000
     28      -4.8109      2.00000
     29      -4.6175      2.00000
     30      -4.3790      2.00000
     31      -3.9682      2.00000
     32      -3.8379      2.00000
     33      -3.8166      2.00000
     34      -3.4123      2.00000
     35      -3.3585      2.00000
     36      -3.0384      2.00000
     37      -2.9046      2.00000
     38      -2.6013      2.00000
     39      -2.3674      2.00000
     40      -2.2628      2.00000
     41      -2.1300      2.00000
     42      -1.8494      2.00000
     43      -1.1606      2.00000
     44      -0.7277      2.00000
     45      -0.4675      2.00000
     46      -0.2861      2.00000
     47      -0.1263      2.00000
     48      -0.0241      2.00000
     49       0.6801      2.00000
     50       0.9179      2.00000
     51       9.4090      0.00000
     52       9.6202      0.00000
     53       9.8788      0.00000
     54      10.2447      0.00000
     55      10.6277      0.00000
     56      10.7617      0.00000
     57      11.0439      0.00000
     58      11.4389      0.00000
     59      11.8181      0.00000
     60      11.9965      0.00000

 k-point    13 :      -0.2500   -0.2500    0.2500
  band No.  band energies     occupation 
      1     -44.4704      2.00000
      2     -44.4704      2.00000
      3     -44.4632      2.00000
      4     -44.4632      2.00000
      5     -44.3960      2.00000
      6     -44.3830      2.00000
      7     -24.0558      2.00000
      8     -24.0006      2.00000
      9     -24.0006      2.00000
     10     -23.9882      2.00000
     11     -23.8860      2.00000
     12     -23.8621      2.00000
     13     -23.8621      2.00000
     14     -23.8494      2.00000
     15     -23.8367      2.00000
     16     -23.8199      2.00000
     17     -21.3303      2.00000
     18     -20.4065      2.00000
     19     -19.7158      2.00000
     20     -19.7158      2.00000
     21     -19.4570      2.00000
     22     -19.3309      2.00000
     23     -19.2699      2.00000
     24     -19.2699      2.00000
     25      -9.4599      2.00000
     26      -8.7000      2.00000
     27      -5.3366      2.00000
     28      -4.9185      2.00000
     29      -4.9185      2.00000
     30      -4.6711      2.00000
     31      -4.2362      2.00000
     32      -3.5252      2.00000
     33      -3.5252      2.00000
     34      -3.3343      2.00000
     35      -2.9780      2.00000
     36      -2.9700      2.00000
     37      -2.7482      2.00000
     38      -2.7482      2.00000
     39      -2.1960      2.00000
     40      -2.1415      2.00000
     41      -2.1415      2.00000
     42      -1.9841      2.00000
     43      -1.3514      2.00000
     44      -0.5156      2.00000
     45      -0.5156      2.00000
     46      -0.1990      2.00000
     47      -0.0421      2.00000
     48      -0.0421      2.00000
     49       0.3795      2.00000
     50       0.7429      2.00000
     51       9.3571      0.00000
     52       9.8575      0.00000
     53      10.1432      0.00000
     54      10.5085      0.00000
     55      10.5085      0.00000
     56      10.5940      0.00000
     57      11.4585      0.00000
     58      11.7179      0.00000
     59      11.7179      0.00000
     60      11.7357      0.00000

 k-point    14 :       0.5000    0.5000    0.5000
  band No.  band energies     occupation 
      1     -44.4717      2.00000
      2     -44.4717      2.00000
      3     -44.4619      2.00000
      4     -44.4619      2.00000
      5     -44.3895      2.00000
      6     -44.3895      2.00000
      7     -24.0306      2.00000
      8     -24.0306      2.00000
      9     -24.0264      2.00000
     10     -24.0264      2.00000
     11     -23.8622      2.00000
     12     -23.8622      2.00000
     13     -23.8321      2.00000
     14     -23.8321      2.00000
     15     -23.8230      2.00000
     16     -23.8230      2.00000
     17     -20.9269      2.00000
     18     -20.9269      2.00000
     19     -19.7840      2.00000
     20     -19.7840      2.00000
     21     -19.3554      2.00000
     22     -19.3554      2.00000
     23     -19.2015      2.00000
     24     -19.2015      2.00000
     25      -9.0770      2.00000
     26      -9.0769      2.00000
     27      -4.8853      2.00000
     28      -4.8853      2.00000
     29      -4.4323      2.00000
     30      -4.4323      2.00000
     31      -3.9366      2.00000
     32      -3.9366      2.00000
     33      -3.5458      2.00000
     34      -3.5458      2.00000
     35      -3.1185      2.00000
     36      -3.1185      2.00000
     37      -2.9399      2.00000
     38      -2.9399      2.00000
     39      -2.5399      2.00000
     40      -2.5399      2.00000
     41      -2.2114      2.00000
     42      -2.2114      2.00000
     43      -0.6547      2.00000
     44      -0.6547      2.00000
     45      -0.1496      2.00000
     46      -0.1496      2.00000
     47      -0.0639      2.00000
     48      -0.0639      2.00000
     49       0.3553      2.00000
     50       0.3553      2.00000
     51      10.0034      0.00000
     52      10.0035      0.00000
     53      10.0506      0.00000
     54      10.0506      0.00000
     55      10.2409      0.00000
     56      10.2409      0.00000
     57      11.9715      0.00000
     58      11.9715      0.00000
     59      12.1352      0.00000
     60      12.1352      0.00000


--------------------------------------------------------------------------------------------------------


 soft charge-density along one line, spin component           1
         0         1         2         3         4         5         6         7         8         9
 total charge-density along one line
 
 pseudopotential strength for first ion, spin component:           1
  9.418 -11.251   0.007   0.033   0.028  -0.008  -0.041  -0.035
-11.251  13.436  -0.009  -0.042  -0.036   0.011   0.052   0.045
  0.007  -0.009  -5.388   0.001  -0.006   5.852  -0.001   0.008
  0.033  -0.042   0.001  -5.476  -0.032  -0.001   5.970   0.042
  0.028  -0.036  -0.006  -0.032  -5.450   0.008   0.042   5.935
 -0.008   0.011   5.852  -0.001   0.008  -5.980   0.002  -0.011
 -0.041   0.052  -0.001   5.970   0.042   0.002  -6.138  -0.057
 -0.035   0.045   0.008   0.042   5.935  -0.011  -0.057  -6.092
 total augmentation occupancy for first ion, spin component:           1
  2.756   0.421  -0.022  -0.130  -0.106  -0.009  -0.051  -0.043
  0.421   0.091  -0.020  -0.100  -0.086  -0.004  -0.021  -0.019
 -0.022  -0.020   2.214   0.016   0.004   0.268   0.002   0.005
 -0.130  -0.100   0.016   2.314   0.067   0.002   0.359   0.037
 -0.106  -0.086   0.004   0.067   2.275   0.005   0.037   0.332
 -0.009  -0.004   0.268   0.002   0.005   0.035   0.001   0.002
 -0.051  -0.021   0.002   0.359   0.037   0.001   0.064   0.012
 -0.043  -0.019   0.005   0.037   0.332   0.002   0.012   0.055


------------------------ aborting loop because EDIFF is reached ----------------------------------------


    CHARGE:  cpu time    0.8921: real time    0.8936
    FORLOC:  cpu time    0.0240: real time    0.0229
    FORHF :  cpu time  370.5032: real time  370.7402
    FORNL :  cpu time    2.6362: real time    2.6397
    STRESS:  cpu time    8.3125: real time    8.3171
    FORCOR:  cpu time    0.2440: real time    0.2458
    FORHAR:  cpu time    0.0680: real time    0.0665
    MIXING:  cpu time    0.0000: real time    0.0024
    OFIELD:  cpu time    0.0000: real time    0.0001

  FORCE on cell =-STRESS in cart. coord.  units (eV):
  Direction    XX          YY          ZZ          XY          YZ          ZX
  --------------------------------------------------------------------------------------
  Alpha Z   457.83878   457.83878   457.83878
  Ewald   -2587.06742 -2565.00319 -2551.15528   -22.30222     0.00006    -0.00014
  Hartree   803.01143   809.53022   813.62182    -6.58894    -0.00000    -0.00000
  E(xc)    -207.31539  -207.40473  -207.46082     0.09031    -0.00000    -0.00000
  Local     -72.47674   -98.94530  -115.55839    26.75370    -0.00009    -0.00003
  n-local   806.09269   806.39816   807.34909    -0.87295     0.10910     0.03285
  augment   333.34015   333.02469   332.82688     0.31888     0.00121     0.00079
  Kinetic  1637.17200  1636.55756  1635.60251     1.73393    -0.35202    -0.30335
  Fock    -1170.78406 -1172.11758 -1172.75215     1.05785    -0.00758    -0.08626
  -------------------------------------------------------------------------------------
  Total       0.00082     0.00083     0.00084    -0.00002     0.00000     0.00000
  in kB       0.00900     0.00917     0.00928    -0.00017     0.00001     0.00001
  external pressure =        0.01 kB  Pullay stress =        0.00 kB


 VOLUME and BASIS-vectors are now :
 -----------------------------------------------------------------------------
  energy-cutoff  :      950.00
  volume of cell :      145.07
      direct lattice vectors                 reciprocal lattice vectors
     6.725197047 -0.022327772  0.000001101     0.148452729 -0.072823650  0.140181208
     2.961889379  6.037879194 -0.000001142     0.000548948  0.165351807  0.140181120
    -4.843543434 -3.007774528  3.566812767    -0.000000046  0.000000075  0.280362349

  length of vectors
     6.725234112  6.725234112  6.725234116     0.216777000  0.216777000  0.280362349


 FORCES acting on ions
    electron-ion (+dipol)            ewald-force                    non-local-force                 convergence-correction
 -----------------------------------------------------------------------------------------------
   -.792E+02 -.106E+02 -.995E+02   0.904E+02 0.132E+02 0.113E+03   -.762E+01 -.178E+01 -.902E+01   0.253E-03 -.179E-04 0.347E-03
   -.446E+02 -.663E+02 0.995E+02   0.519E+02 0.752E+02 -.113E+03   -.497E+01 -.604E+01 0.902E+01   0.963E-04 0.235E-03 -.347E-03
   -.114E+03 0.461E+02 0.328E+02   0.131E+03 -.515E+02 -.365E+02   -.111E+02 0.375E+01 0.251E+01   0.358E-03 -.186E-03 -.149E-03
   -.940E+01 -.123E+03 -.328E+02   0.117E+02 0.140E+03 0.365E+02   -.154E+01 -.116E+02 -.251E+01   -.796E-05 0.403E-03 0.149E-03
   0.792E+02 0.106E+02 0.995E+02   -.904E+02 -.132E+02 -.113E+03   0.762E+01 0.178E+01 0.902E+01   -.253E-03 0.179E-04 -.347E-03
   0.446E+02 0.663E+02 -.995E+02   -.519E+02 -.752E+02 0.113E+03   0.497E+01 0.604E+01 -.902E+01   -.963E-04 -.235E-03 0.347E-03
   0.114E+03 -.461E+02 -.328E+02   -.131E+03 0.515E+02 0.365E+02   0.111E+02 -.375E+01 -.251E+01   -.358E-03 0.186E-03 0.149E-03
   0.940E+01 0.123E+03 0.328E+02   -.117E+02 -.140E+03 -.365E+02   0.154E+01 0.116E+02 0.251E+01   0.796E-05 -.403E-03 -.149E-03
   -.752E-04 -.119E-04 -.433E-04   0.256E-03 -.967E-04 0.103E-04   0.104E-16 0.147E-16 0.434E-17   -.136E-09 0.221E-09 0.325E-10
   0.752E-04 0.119E-04 0.433E-04   -.754E-04 -.239E-04 0.144E-03   0.000E+00 -.607E-17 -.607E-17   -.667E-10 0.181E-10 -.233E-09
   -.756E-05 -.399E-05 -.528E-05   -.601E-04 -.116E-03 -.305E-04   0.694E-17 -.694E-17 0.694E-17   0.121E-12 -.372E-10 -.600E-10
   0.756E-05 0.399E-05 0.528E-05   0.794E-04 0.816E-04 -.697E-04   0.139E-16 -.278E-16 0.000E+00   -.233E-10 0.321E-10 -.908E-10
 -----------------------------------------------------------------------------------------------
   -.458E-03 -.119E-03 0.723E-03   0.627E-13 0.633E-14 0.721E-14   0.669E-14 0.175E-14 0.449E-15   -.184E-09 0.238E-09 -.489E-09
 
 
 POSITION                                       TOTAL-FORCE (eV/Angst)
 -----------------------------------------------------------------------------------
      2.65062      0.13403      2.26769         0.000027      0.000033     -0.000009
     -2.60732     -2.20643      3.08253         0.000042      0.000009      0.000009
      4.65026      2.31769      2.28235         0.000029      0.000029      0.000014
      0.23659     -1.38232      3.06787         0.000039      0.000013     -0.000014
      2.19292      2.87375      1.29913        -0.000027     -0.000033      0.000009
      7.45086      5.21421      0.48428        -0.000042     -0.000009     -0.000009
      0.19328      0.69008      1.28446        -0.000029     -0.000029     -0.000014
      4.60696      4.39009      0.49895        -0.000039     -0.000013      0.000014
      1.68130     -0.00558      0.89170         0.000000     -0.000000     -0.000000
      3.16224      3.01336      2.67511        -0.000000     -0.000000      0.000000
      6.52484      3.00219      0.89170         0.000000     -0.000000     -0.000000
     -1.68130      0.00558      2.67511         0.000000      0.000000      0.000000
 -----------------------------------------------------------------------------------
    total drift:                               -0.000458     -0.000119      0.000723


--------------------------------------------------------------------------------------------------------



  FREE ENERGIE OF THE ION-ELECTRON SYSTEM (eV)
  ---------------------------------------------------
  free  energy   TOTEN  =      -163.18356934 eV

  energy  without entropy=     -163.18356934  energy(sigma->0) =     -163.18356934
 
 d Force = 0.7249411E-08[-0.663E-09, 0.152E-07]  d Energy = 0.8729330E-08-0.148E-08
 d Force =-0.7043880E-02[-0.704E-02,-0.704E-02]  d Ewald  =-0.6142940E-02-0.901E-03


--------------------------------------------------------------------------------------------------------


    POTLOK:  cpu time    0.9561: real time    0.9536


--------------------------------------------------------------------------------------------------------


 Quasi-Newton relaxation of ions (Broydens 2nd method)
  g(Force)  = 0.739E-09   g(Stress)= 0.828E-08

 retain information from N=  2 steps
 eigenvalues of (default step * inverse Hessian matrix)
  average eigenvalue of G=   1.6352
 eigenvalue spectrum of G is  0.0461  3.2244


--------------------------------------------------------------------------------------------------------


  
 reached required accuracy - stopping structural energy minimisation
 writing wavefunctions
     LOOP+:  cpu time 1561.7336: real time 1563.6373
    4ORBIT:  cpu time    0.0000: real time    0.0000

 total amount of memory used by VASP MPI-rank0   533964. kBytes
=======================================================================

   base      :      30000. kBytes
   nonl-proj :       6302. kBytes
   fftplans  :      41627. kBytes
   grid      :      19129. kBytes
   one-center:         31. kBytes
   HF        :        129. kBytes
   nonlr-proj:     422823. kBytes
   wavefun   :      13923. kBytes
 
  
  
 General timing and accounting informations for this job:
 ========================================================
  
                  Total CPU time used (sec):    73757.305
                            User time (sec):    73586.751
                          System time (sec):      170.551
                         Elapsed time (sec):    73839.392
  
                   Maximum memory used (kb):      215788.
                   Average memory used (kb):           0.
  
                          Minor page faults:     20416289
                          Major page faults:            0
                 Voluntary context switches:         5297
