 running on  240 total cores
 distrk:  each k-point on   10 cores,   24 groups
 distr:  one band on   10 cores,    1 groups
 using from now: INCAR     
 vasp.5.4.4.18Apr17-6-g9f103f2a35 (build Apr 27 2017 15:58:20) complex          
  
 POSCAR found type information on POSCAR  O  V  Bi
 POSCAR found :  3 types and      12 ions
 scaLAPACK will be used

 ----------------------------------------------------------------------------- 
|                                                                             |
|           W    W    AA    RRRRR   N    N  II  N    N   GGGG   !!!           |
|           W    W   A  A   R    R  NN   N  II  NN   N  G    G  !!!           |
|           W    W  A    A  R    R  N N  N  II  N N  N  G       !!!           |
|           W WW W  AAAAAA  RRRRR   N  N N  II  N  N N  G  GGG   !            |
|           WW  WW  A    A  R   R   N   NN  II  N   NN  G    G                |
|           W    W  A    A  R    R  N    N  II  N    N   GGGG   !!!           |
|                                                                             |
|      You have enabled k-point parallelism (KPAR>1).                         |
|      This developmental code was originally  written by Paul Kent at ORNL,  |
|      and carefully double checked in Vienna.                                |
|      GW as well as linear response parallelism added by Martijn Marsman     |
|      and Georg Kresse.                                                      |
|      Carefully verify results versus KPAR=1.                                |
|      Report problems to Paul Kent and Vienna.                               |
|                                                                             |
 ----------------------------------------------------------------------------- 

 WARNING: PSMAXN for non-local potential too small

 ----------------------------------------------------------------------------- 
|                                                                             |
|  ADVICE TO THIS USER RUNNING 'VASP/VAMP'   (HEAR YOUR MASTER'S VOICE ...):  |
|                                                                             |
|      You enforced a specific xc-type in the INCAR file,                     |
|      a different type was found on the POTCAR file                          |
|          I HOPE YOU KNOW, WHAT YOU ARE  DOING                               |
|                                                                             |
 ----------------------------------------------------------------------------- 

 LDA part: xc-table for Pade appr. of Perdew
 found WAVECAR, reading the header
 WAVECAR: different cutoff or change in lattice found
 POSCAR, INCAR and KPOINTS ok, starting setup
 FFT: planning ...
 reading WAVECAR
 the WAVECAR file was read successfully
 initial charge from wavefunction
 entering main loop
       N       E                     dE             d eps       ncg     rms          rms(c)
DAV:   1    -0.163183569120E+03   -0.16318E+03   -0.42605E-09   876   0.425E-04    0.194E-04
DAV:   2    -0.163183569120E+03   -0.23283E-09   -0.64387E-10   840   0.293E-04
   1 F= -.16318357E+03 E0= -.16318357E+03  d E =-.163184E+03
 BRION: g(F)=  0.454E-07 g(S)=  0.888E-07
 bond charge predicted
 writing wavefunctions
       N       E                     dE             d eps       ncg     rms          rms(c)
DAV:   1    -0.163183569724E+03   -0.60415E-06   -0.31909E-05  2148   0.498E-02    0.678E-03
DAV:   2    -0.163183569785E+03   -0.60962E-07   -0.99907E-07  1736   0.706E-03    0.358E-03
DAV:   3    -0.163183569550E+03    0.23556E-06   -0.43730E-07  2460   0.619E-03    0.172E-03
DAV:   4    -0.163183569543E+03    0.71377E-08   -0.24343E-07  2200   0.318E-03    0.145E-03
DAV:   5    -0.163183569540E+03    0.24993E-08   -0.44261E-08  1676   0.142E-03
   2 F= -.16318357E+03 E0= -.16318357E+03  d E =-.419686E-06
 BRION: g(F)=  0.996E-08 g(S)=  0.106E-05 retain N=  1 mean eig= 0.21
 eig:   0.207
 bond charge predicted
 writing wavefunctions
       N       E                     dE             d eps       ncg     rms          rms(c)
DAV:   1    -0.163183570085E+03   -0.54200E-06   -0.12085E-05  2072   0.307E-02    0.369E-03
DAV:   2    -0.163183570102E+03   -0.17759E-07   -0.33747E-07  2228   0.523E-03    0.231E-03
DAV:   3    -0.163183570040E+03    0.62642E-07   -0.67277E-08  1908   0.235E-03    0.101E-03
DAV:   4    -0.163183570024E+03    0.15481E-07   -0.52940E-08  1700   0.146E-03    0.403E-04
DAV:   5    -0.163183570016E+03    0.87184E-08   -0.92419E-09   900   0.748E-04
   3 F= -.16318357E+03 E0= -.16318357E+03  d E =-.475417E-06
 BRION: g(F)=  0.575E-07 g(S)=  0.156E-04 retain N=  2 mean eig= 0.47
 eig:   0.472  0.472
 bond charge predicted
 writing wavefunctions
       N       E                     dE             d eps       ncg     rms          rms(c)
DAV:   1    -0.163183569697E+03    0.32675E-06   -0.35137E-05  2256   0.582E-02    0.940E-03
DAV:   2    -0.163183569509E+03    0.18834E-06   -0.94461E-07  1948   0.851E-03    0.578E-03
DAV:   3    -0.163183569197E+03    0.31241E-06   -0.44795E-07  2400   0.554E-03    0.225E-03
DAV:   4    -0.163183569186E+03    0.10641E-07   -0.26460E-07  2264   0.332E-03    0.667E-04
DAV:   5    -0.163183569207E+03   -0.20791E-07   -0.40510E-08  1520   0.152E-03    0.365E-04
DAV:   6    -0.163183569218E+03   -0.11089E-07   -0.67652E-09   860   0.808E-04    0.369E-04
DAV:   7    -0.163183569228E+03   -0.10163E-07   -0.77882E-09   840   0.536E-04    0.197E-04
DAV:   8    -0.163183569235E+03   -0.71741E-08   -0.26739E-09   840   0.339E-04
   4 F= -.16318357E+03 E0= -.16318357E+03  d E =0.780206E-06
 BRION: g(F)=  0.191E-07 g(S)=  0.666E-07 retain N=  1 mean eig= 0.08
 eig:   0.081
 bond charge predicted
 writing wavefunctions
       N       E                     dE             d eps       ncg     rms          rms(c)
DAV:   1    -0.163183569636E+03   -0.40763E-06   -0.17681E-05  2312   0.378E-02    0.734E-03
DAV:   2    -0.163183569676E+03   -0.40707E-07   -0.58704E-07  1908   0.599E-03    0.487E-03
DAV:   3    -0.163183569575E+03    0.10102E-06   -0.20240E-07  2280   0.336E-03    0.270E-03
DAV:   4    -0.163183569561E+03    0.14334E-07   -0.10869E-07  1888   0.217E-03    0.161E-03
DAV:   5    -0.163183569552E+03    0.90531E-08   -0.15878E-08   868   0.122E-03
   5 F= -.16318357E+03 E0= -.16318357E+03  d E =-.316757E-06
 BRION: g(F)=  0.170E-06 g(S)=  0.168E-05 retain N=  2 mean eig= 1.92
 eig:   0.037  3.811
 bond charge predicted
 writing wavefunctions
       N       E                     dE             d eps       ncg     rms          rms(c)
DAV:   1    -0.163183569377E+03    0.18369E-06   -0.12148E-05  2328   0.312E-02    0.590E-03
DAV:   2    -0.163183569385E+03   -0.72523E-08   -0.38742E-07  1836   0.458E-03    0.420E-03
DAV:   3    -0.163183569304E+03    0.80950E-07   -0.13954E-07  2144   0.267E-03    0.236E-03
DAV:   4    -0.163183569299E+03    0.44147E-08   -0.67675E-08  1688   0.172E-03
   6 F= -.16318357E+03 E0= -.16318357E+03  d E =0.252747E-06
 BRION: g(F)=  0.229E-08 g(S)=  0.346E-07 retain N=  1 mean eig= 0.01
 eig:   0.005
 bond charge predicted
 writing wavefunctions
       N       E                     dE             d eps       ncg     rms          rms(c)
DAV:   1    -0.163183569282E+03    0.22093E-07   -0.59185E-06  2240   0.232E-02    0.482E-03
DAV:   2    -0.163183569233E+03    0.48807E-07   -0.14760E-07  1988   0.349E-03    0.271E-03
DAV:   3    -0.163183569170E+03    0.62410E-07   -0.91319E-08  2040   0.275E-03    0.101E-03
DAV:   4    -0.163183569172E+03   -0.17008E-08   -0.60862E-08  1768   0.159E-03
   7 F= -.16318357E+03 E0= -.16318357E+03  d E =0.127195E-06
 BRION: g(F)=  0.514E-07 g(S)=  0.283E-07 retain N=  2 mean eig= 0.24
 eig:   0.063  0.415
 bond charge predicted
 writing wavefunctions
       N       E                     dE             d eps       ncg     rms          rms(c)
DAV:   1    -0.163183569227E+03   -0.56381E-07   -0.39279E-06  1924   0.159E-02    0.318E-03
DAV:   2    -0.163183569289E+03   -0.62473E-07   -0.19403E-07  1816   0.284E-03    0.269E-03
DAV:   3    -0.163183569283E+03    0.62028E-08   -0.41138E-08  1536   0.146E-03
   8 F= -.16318357E+03 E0= -.16318357E+03  d E =-.110951E-06
 BRION: g(F)=  0.178E-07 g(S)=  0.456E-06 retain N=  1 mean eig= 0.16
 eig:   0.157
 bond charge predicted
 writing wavefunctions
       N       E                     dE             d eps       ncg     rms          rms(c)
DAV:   1    -0.163183569045E+03    0.24407E-06   -0.81291E-06  1792   0.172E-02    0.149E-03
DAV:   2    -0.163183569208E+03   -0.16313E-06   -0.48010E-07  2016   0.390E-03    0.237E-03
DAV:   3    -0.163183569190E+03    0.18228E-07   -0.50207E-08  1792   0.205E-03    0.236E-03
DAV:   4    -0.163183569187E+03    0.28922E-08   -0.16359E-08  1284   0.936E-04
   9 F= -.16318357E+03 E0= -.16318357E+03  d E =0.958571E-07
 BRION: g(F)=  0.161E-06 g(S)=  0.168E-08 retain N=  1 mean eig= 0.06
 eig:   0.061
 bond charge predicted
 writing wavefunctions
       N       E                     dE             d eps       ncg     rms          rms(c)
DAV:   1    -0.163183568389E+03    0.80142E-06   -0.34229E-05  1680   0.284E-02    0.192E-03
DAV:   2    -0.163183569248E+03   -0.85882E-06   -0.24091E-06  2112   0.899E-03    0.598E-03
DAV:   3    -0.163183569255E+03   -0.71705E-08   -0.16224E-07  2352   0.365E-03    0.526E-03
DAV:   4    -0.163183569249E+03    0.58371E-08   -0.33453E-08  1584   0.148E-03
  10 F= -.16318357E+03 E0= -.16318357E+03  d E =-.616274E-07
 BRION: g(F)=  0.889E-07 g(S)=  0.395E-06 retain N=  1 mean eig= 0.06
 eig:   0.061
 bond charge predicted
 writing wavefunctions
       N       E                     dE             d eps       ncg     rms          rms(c)
DAV:   1    -0.163183569306E+03   -0.51226E-07   -0.75680E-07  2112   0.794E-03    0.650E-04
DAV:   2    -0.163183569317E+03   -0.10943E-07   -0.42350E-08  1636   0.151E-03    0.712E-04
DAV:   3    -0.163183569316E+03    0.51659E-09   -0.80906E-09   868   0.761E-04
  11 F= -.16318357E+03 E0= -.16318357E+03  d E =-.674900E-07
 BRION: g(F)=  0.873E-07 g(S)=  0.445E-06 retain N=  2 mean eig= 0.26
 eig:   0.257  0.260
 bond charge predicted
 writing wavefunctions
       N       E                     dE             d eps       ncg     rms          rms(c)
DAV:   1    -0.163183569345E+03   -0.28020E-07   -0.38126E-07  2280   0.575E-03    0.135E-03
DAV:   2    -0.163183569342E+03    0.32142E-08   -0.10186E-08  1028   0.107E-03
  12 F= -.16318357E+03 E0= -.16318357E+03  d E =-.253222E-07
 BRION: g(F)=  0.291E-07 g(S)=  0.533E-06 retain N=  2 mean eig= 0.86
 eig:   0.856  0.856
 bond charge predicted
 writing wavefunctions
       N       E                     dE             d eps       ncg     rms          rms(c)
DAV:   1    -0.163183567213E+03    0.21318E-05   -0.11488E-04  1808   0.739E-02    0.144E-02
DAV:   2    -0.163183569370E+03   -0.21572E-05   -0.65918E-06  2064   0.159E-02    0.127E-02
DAV:   3    -0.163183569224E+03    0.14596E-06   -0.79682E-07  2360   0.734E-03    0.971E-03
DAV:   4    -0.163183569158E+03    0.66137E-07   -0.26762E-07  2344   0.390E-03    0.609E-03
DAV:   5    -0.163183569119E+03    0.38968E-07   -0.86599E-08  1680   0.278E-03    0.228E-03
DAV:   6    -0.163183569094E+03    0.24713E-07   -0.31968E-08  1444   0.184E-03    0.412E-04
DAV:   7    -0.163183569083E+03    0.11440E-07   -0.14354E-08   936   0.740E-04    0.180E-04
DAV:   8    -0.163183569075E+03    0.77471E-08   -0.39210E-09   960   0.633E-04
  13 F= -.16318357E+03 E0= -.16318357E+03  d E =0.266389E-06
 BRION: g(F)=  0.288E-05 g(S)=  0.907E-06 retain N=  2 mean eig= 1.11
 eig:   0.327  1.899
 bond charge predicted
 writing wavefunctions
       N       E                     dE             d eps       ncg     rms          rms(c)
DAV:   1    -0.163183568490E+03    0.59261E-06   -0.49356E-05  1792   0.434E-02    0.753E-03
DAV:   2    -0.163183569500E+03   -0.10094E-05   -0.31043E-06  2104   0.116E-02    0.768E-03
DAV:   3    -0.163183569457E+03    0.43330E-07   -0.27659E-07  2412   0.457E-03    0.617E-03
DAV:   4    -0.163183569436E+03    0.20707E-07   -0.76589E-08  2128   0.232E-03    0.398E-03
DAV:   5    -0.163183569437E+03   -0.72032E-09   -0.32298E-08  1424   0.156E-03
  14 F= -.16318357E+03 E0= -.16318357E+03  d E =-.361266E-06
 BRION: g(F)=  0.331E-06 g(S)=  0.847E-06 retain N=  3 mean eig= 1.94
 eig:   0.800  2.504  2.504
 bond charge predicted
 writing wavefunctions
       N       E                     dE             d eps       ncg     rms          rms(c)
DAV:   1    -0.163183569462E+03   -0.25708E-07   -0.13941E-05  1936   0.297E-02    0.546E-03
DAV:   2    -0.163183569505E+03   -0.42997E-07   -0.55293E-07  2296   0.643E-03    0.368E-03
DAV:   3    -0.163183569407E+03    0.97260E-07   -0.10794E-07  2036   0.260E-03    0.205E-03
DAV:   4    -0.163183569398E+03    0.91568E-08   -0.73358E-08  1860   0.174E-03
  15 F= -.16318357E+03 E0= -.16318357E+03  d E =0.384316E-07
 BRION: g(F)=  0.341E-07 g(S)=  0.105E-06 retain N=  2 mean eig= 0.61
 eig:   0.609  0.609
 bond charge predicted
 writing wavefunctions
       N       E                     dE             d eps       ncg     rms          rms(c)
DAV:   1    -0.163183569288E+03    0.11946E-06   -0.25170E-06  1680   0.920E-03    0.147E-03
DAV:   2    -0.163183569347E+03   -0.59195E-07   -0.16079E-07  1932   0.284E-03    0.119E-03
DAV:   3    -0.163183569350E+03   -0.28685E-08   -0.96225E-09  1204   0.104E-03
  16 F= -.16318357E+03 E0= -.16318357E+03  d E =0.482396E-07
 BRION: g(F)=  0.468E-08 g(S)=  0.245E-07 retain N=  2 mean eig= 1.85
 eig:   0.230  3.475
 bond charge predicted
 writing wavefunctions
       N       E                     dE             d eps       ncg     rms          rms(c)
DAV:   1    -0.163183569370E+03   -0.22897E-07   -0.23045E-07  1688   0.274E-03    0.641E-04
DAV:   2    -0.163183569379E+03   -0.91495E-08   -0.16410E-08   840   0.101E-03
  17 F= -.16318357E+03 E0= -.16318357E+03  d E =-.291784E-07
 BRION: g(F)=  0.154E-07 g(S)=  0.457E-07 retain N=  2 mean eig= 0.49
 eig:   0.487  0.487
 bond charge predicted
 writing wavefunctions
       N       E                     dE             d eps       ncg     rms          rms(c)
DAV:   1    -0.163183569380E+03   -0.10008E-07   -0.14336E-07  1568   0.248E-03    0.300E-04
DAV:   2    -0.163183569385E+03   -0.47748E-08   -0.90861E-09   840   0.635E-04
  18 F= -.16318357E+03 E0= -.16318357E+03  d E =-.563341E-08
 BRION: g(F)=  0.257E-07 g(S)=  0.121E-06 retain N=  2 mean eig= 2.21
 eig:   0.128  4.284
 bond charge predicted
 writing wavefunctions
       N       E                     dE             d eps       ncg     rms          rms(c)
DAV:   1    -0.163183569395E+03   -0.15281E-07   -0.31271E-06  2140   0.146E-02    0.224E-03
DAV:   2    -0.163183569399E+03   -0.42783E-08   -0.12408E-07  2092   0.303E-03    0.126E-03
DAV:   3    -0.163183569376E+03    0.23021E-07   -0.32925E-08  1560   0.170E-03    0.600E-04
DAV:   4    -0.163183569372E+03    0.45329E-08   -0.37481E-08  1192   0.111E-03
  19 F= -.16318357E+03 E0= -.16318357E+03  d E =0.127693E-07
 BRION: g(F)=  0.414E-08 g(S)=  0.112E-06 retain N=  2 mean eig= 1.62
 eig:   0.013  3.234
 bond charge predicted
 writing wavefunctions
       N       E                     dE             d eps       ncg     rms          rms(c)
DAV:   1    -0.163183569684E+03   -0.30781E-06   -0.15375E-05  1876   0.325E-02    0.328E-03
DAV:   2    -0.163183569798E+03   -0.11329E-06   -0.55601E-07  2044   0.489E-03    0.173E-03
DAV:   3    -0.163183569733E+03    0.64339E-07   -0.14634E-07  2352   0.374E-03    0.163E-03
DAV:   4    -0.163183569727E+03    0.57389E-08   -0.70084E-08  2088   0.177E-03
  20 F= -.16318357E+03 E0= -.16318357E+03  d E =-.355554E-06
 BRION: g(F)=  0.647E-07 g(S)=  0.759E-05 retain N=  2 mean eig= 0.54
 eig:   0.870  0.205
 bond charge predicted
 writing wavefunctions
       N       E                     dE             d eps       ncg     rms          rms(c)
DAV:   1    -0.163183569312E+03    0.42167E-06   -0.16504E-05  1872   0.332E-02    0.372E-03
DAV:   2    -0.163183569409E+03   -0.97607E-07   -0.60214E-07  1980   0.485E-03    0.185E-03
DAV:   3    -0.163183569324E+03    0.85369E-07   -0.16273E-07  2336   0.350E-03    0.132E-03
DAV:   4    -0.163183569324E+03    0.14552E-10   -0.81579E-08  2124   0.175E-03
  21 F= -.16318357E+03 E0= -.16318357E+03  d E =0.403705E-06
 BRION: g(F)=  0.683E-08 g(S)=  0.377E-07 retain N=  1 mean eig= 0.06
 eig:   0.060
 bond charge predicted
 writing wavefunctions
       N       E                     dE             d eps       ncg     rms          rms(c)
DAV:   1    -0.163183569413E+03   -0.88838E-07   -0.42124E-06  1704   0.131E-02    0.202E-03
DAV:   2    -0.163183569467E+03   -0.54586E-07   -0.15644E-07  2036   0.293E-03    0.212E-03
DAV:   3    -0.163183569465E+03    0.23865E-08   -0.96611E-09  1016   0.102E-03
  22 F= -.16318357E+03 E0= -.16318357E+03  d E =-.141052E-06
 BRION: g(F)=  0.333E-07 g(S)=  0.337E-05 retain N=  1 mean eig= 0.00
 eig:   0.002
 bond charge predicted
 writing wavefunctions
       N       E                     dE             d eps       ncg     rms          rms(c)
DAV:   1    -0.163183569470E+03   -0.23556E-08   -0.12344E-07  1352   0.182E-03    0.987E-04
DAV:   2    -0.163183569471E+03   -0.18299E-08   -0.13830E-08   848   0.981E-04
  23 F= -.16318357E+03 E0= -.16318357E+03  d E =-.657201E-08
 BRION: g(F)=  0.577E-09 g(S)=  0.223E-05 retain N=  2 mean eig= 1.54
 eig:   0.052  3.021
 bond charge predicted
 writing wavefunctions
       N       E                     dE             d eps       ncg     rms          rms(c)
DAV:   1    -0.163183569339E+03    0.13049E-06   -0.26913E-06  1712   0.104E-02    0.135E-03
DAV:   2    -0.163183569345E+03   -0.54479E-08   -0.49274E-08  1756   0.201E-03
  24 F= -.16318357E+03 E0= -.16318357E+03  d E =0.126873E-06
 BRION: g(F)=  0.182E-08 g(S)=  0.594E-07 retain N=  2 mean eig= 0.17
 eig:   0.008  0.322
 bond charge predicted
 writing wavefunctions
       N       E                     dE             d eps       ncg     rms          rms(c)
DAV:   1    -0.163183569318E+03    0.20693E-07   -0.37092E-07  1680   0.344E-03    0.320E-04
DAV:   2    -0.163183569328E+03   -0.93387E-08   -0.27319E-08  1392   0.100E-03
  25 F= -.16318357E+03 E0= -.16318357E+03  d E =0.168020E-07
 BRION: g(F)=  0.463E-07 g(S)=  0.692E-08 retain N=  2 mean eig= 1.95
 eig:   0.008  3.900
 bond charge predicted
 writing wavefunctions
       N       E                     dE             d eps       ncg     rms          rms(c)
DAV:   1    -0.163183569340E+03   -0.21832E-07   -0.24890E-08  1248   0.107E-03    0.389E-04
DAV:   2    -0.163183569342E+03   -0.18699E-08   -0.26863E-09   840   0.400E-04
  26 F= -.16318357E+03 E0= -.16318357E+03  d E =-.143627E-07
 BRION: g(F)=  0.435E-08 g(S)=  0.887E-08 retain N=  2 mean eig= 0.26
 eig:   0.257  0.257
 bond charge predicted
 writing wavefunctions
       N       E                     dE             d eps       ncg     rms          rms(c)
DAV:   1    -0.163183569372E+03   -0.31956E-07   -0.89881E-07  1680   0.559E-03    0.589E-04
DAV:   2    -0.163183569385E+03   -0.12986E-07   -0.47307E-08  1480   0.165E-03    0.506E-04
DAV:   3    -0.163183569382E+03    0.30486E-08   -0.38141E-09   840   0.521E-04
  27 F= -.16318357E+03 E0= -.16318357E+03  d E =-.400232E-07
 BRION: g(F)=  0.111E-07 g(S)=  0.180E-07 retain N=  1 mean eig= 0.43
 eig:   0.427
 bond charge predicted
 writing wavefunctions
       N       E                     dE             d eps       ncg     rms          rms(c)
DAV:   1    -0.163183569595E+03   -0.20962E-06   -0.57277E-06  2168   0.201E-02    0.243E-03
DAV:   2    -0.163183569618E+03   -0.23292E-07   -0.15220E-07  1740   0.275E-03    0.134E-03
DAV:   3    -0.163183569591E+03    0.26745E-07   -0.53455E-08  1920   0.214E-03    0.609E-04
DAV:   4    -0.163183569589E+03    0.24338E-08   -0.30200E-08  1260   0.117E-03
  28 F= -.16318357E+03 E0= -.16318357E+03  d E =-.206781E-06
 BRION: g(F)=  0.960E-08 g(S)=  0.236E-05 retain N=  1 mean eig= 0.03
 eig:   0.033
 bond charge predicted
 writing wavefunctions
       N       E                     dE             d eps       ncg     rms          rms(c)
DAV:   1    -0.163183569605E+03   -0.13306E-07   -0.51394E-07  1680   0.417E-03    0.578E-04
DAV:   2    -0.163183569611E+03   -0.60900E-08   -0.30068E-08  1356   0.136E-03
  29 F= -.16318357E+03 E0= -.16318357E+03  d E =-.218297E-07
 BRION: g(F)=  0.234E-07 g(S)=  0.439E-05 retain N=  2 mean eig= 0.07
 eig:   0.074  0.074
 bond charge predicted
 writing wavefunctions
       N       E                     dE             d eps       ncg     rms          rms(c)
DAV:   1    -0.163183569404E+03    0.20036E-06   -0.30740E-06  2292   0.146E-02    0.295E-03
DAV:   2    -0.163183569388E+03    0.16666E-07   -0.37595E-08  1516   0.171E-03    0.188E-03
DAV:   3    -0.163183569370E+03    0.17542E-07   -0.18625E-08  1220   0.124E-03    0.691E-04
DAV:   4    -0.163183569371E+03   -0.85311E-09   -0.20318E-08   868   0.890E-04
  30 F= -.16318357E+03 E0= -.16318357E+03  d E =0.239805E-06
 BRION: g(F)=  0.363E-07 g(S)=  0.300E-08 retain N=  2 mean eig= 0.94
 eig:   0.019  1.867
 bond charge predicted
 writing wavefunctions
       N       E                     dE             d eps       ncg     rms          rms(c)
DAV:   1    -0.163183569115E+03    0.25502E-06   -0.91641E-06  1680   0.145E-02    0.123E-03
DAV:   2    -0.163183569348E+03   -0.23306E-06   -0.64700E-07  1992   0.462E-03    0.329E-03
DAV:   3    -0.163183569354E+03   -0.59481E-08   -0.37440E-08  1616   0.182E-03
  31 F= -.16318357E+03 E0= -.16318357E+03  d E =0.168602E-07
 BRION: g(F)=  0.894E-07 g(S)=  0.283E-07 retain N=  2 mean eig= 0.26
 eig:   0.172  0.339
 bond charge predicted
 writing wavefunctions
       N       E                     dE             d eps       ncg     rms          rms(c)
DAV:   1    -0.163183569293E+03    0.54706E-07   -0.14721E-06  1688   0.670E-03    0.136E-03
DAV:   2    -0.163183569323E+03   -0.29244E-07   -0.12328E-07  1824   0.247E-03    0.599E-04
DAV:   3    -0.163183569321E+03    0.18499E-08   -0.91523E-09  1220   0.104E-03
  32 F= -.16318357E+03 E0= -.16318357E+03  d E =0.332602E-07
 BRION: g(F)=  0.105E-07 g(S)=  0.139E-07 retain N=  2 mean eig= 0.54
 eig:   0.008  1.077
 bond charge predicted
 writing wavefunctions
       N       E                     dE             d eps       ncg     rms          rms(c)
DAV:   1    -0.163183569323E+03   -0.80763E-09   -0.48173E-07  2340   0.655E-03    0.155E-03
DAV:   2    -0.163183569318E+03    0.51114E-08   -0.12757E-08  1124   0.112E-03
  33 F= -.16318357E+03 E0= -.16318357E+03  d E =0.245382E-08
 BRION: g(F)=  0.122E-07 g(S)=  0.757E-07 retain N=  1 mean eig= 0.18
 eig:   0.176
 bond charge predicted
 writing wavefunctions
       N       E                     dE             d eps       ncg     rms          rms(c)
DAV:   1    -0.163183569335E+03   -0.11889E-07   -0.75942E-06  1680   0.187E-02    0.153E-03
DAV:   2    -0.163183569435E+03   -0.10016E-06   -0.33345E-07  2164   0.439E-03    0.105E-03
DAV:   3    -0.163183569417E+03    0.18113E-07   -0.25115E-08  1416   0.177E-03    0.119E-03
DAV:   4    -0.163183569412E+03    0.50004E-08   -0.23924E-08  1412   0.966E-04
  34 F= -.16318357E+03 E0= -.16318357E+03  d E =-.940472E-07
 BRION: g(F)=  0.517E-08 g(S)=  0.147E-05 retain N=  2 mean eig= 2.54
 eig:   0.158  4.918
 bond charge predicted
 writing wavefunctions
       N       E                     dE             d eps       ncg     rms          rms(c)
DAV:   1    -0.163183569441E+03   -0.23691E-07   -0.35503E-06  1728   0.121E-02    0.122E-03
DAV:   2    -0.163183569468E+03   -0.27296E-07   -0.12844E-07  2148   0.326E-03    0.823E-04
DAV:   3    -0.163183569456E+03    0.12706E-07   -0.66628E-09  1116   0.101E-03    0.600E-04
DAV:   4    -0.163183569450E+03    0.52751E-08   -0.78085E-09   864   0.590E-04
  35 F= -.16318357E+03 E0= -.16318357E+03  d E =-.380060E-07
 BRION: g(F)=  0.481E-08 g(S)=  0.136E-05 retain N=  2 mean eig= 0.37
 eig:   0.371  0.371
 bond charge predicted
 writing wavefunctions
       N       E                     dE             d eps       ncg     rms          rms(c)
DAV:   1    -0.163183569338E+03    0.11775E-06   -0.27051E-06  1880   0.124E-02    0.160E-03
DAV:   2    -0.163183569349E+03   -0.11561E-07   -0.87218E-08  1560   0.189E-03    0.101E-03
DAV:   3    -0.163183569337E+03    0.12578E-07   -0.17050E-08  1212   0.106E-03    0.338E-04
DAV:   4    -0.163183569337E+03   -0.26557E-09   -0.14850E-08   844   0.749E-04
  36 F= -.16318357E+03 E0= -.16318357E+03  d E =0.113225E-06
 BRION: g(F)=  0.175E-07 g(S)=  0.659E-09 retain N=  2 mean eig= 0.35
 eig:   0.116  0.588
 bond charge predicted
 writing wavefunctions
       N       E                     dE             d eps       ncg     rms          rms(c)
DAV:   1    -0.163183569234E+03    0.10284E-06   -0.37436E-06  1576   0.939E-03    0.998E-04
DAV:   2    -0.163183569331E+03   -0.97363E-07   -0.26004E-07  1784   0.294E-03    0.221E-03
DAV:   3    -0.163183569334E+03   -0.28231E-08   -0.12596E-08  1332   0.116E-03
  37 F= -.16318357E+03 E0= -.16318357E+03  d E =0.292130E-08
 BRION: g(F)=  0.376E-07 g(S)=  0.105E-08 retain N=  3 mean eig= 1.91
 eig:   5.341  0.190  0.190
 bond charge predicted
 writing wavefunctions
       N       E                     dE             d eps       ncg     rms          rms(c)
DAV:   1    -0.163183569308E+03    0.23050E-07   -0.13451E-06  1488   0.561E-03    0.615E-04
DAV:   2    -0.163183569343E+03   -0.34555E-07   -0.11227E-07  1772   0.201E-03    0.903E-04
DAV:   3    -0.163183569343E+03   -0.47294E-10   -0.62828E-09  1236   0.877E-04
  38 F= -.16318357E+03 E0= -.16318357E+03  d E =-.872933E-08
 BRION: g(F)=  0.739E-09 g(S)=  0.828E-08 retain N=  2 mean eig= 1.64
 eig:   0.046  3.224
 reached required accuracy - stopping structural energy minimisation
 writing wavefunctions
Application 40618135 resources: utime ~17633128s, stime ~77067s, Rss ~224252, inblocks ~5713815, outblocks ~6984874
