<?xml version="1.0" encoding="ISO-8859-1"?>
<modeling>
 <generator>
  <i name="program" type="string">vasp </i>
  <i name="version" type="string">5.4.4.18Apr17-6-g9f103f2a35  </i>
  <i name="subversion" type="string">(build Apr 27 2017 15:58:20) complex            parallel </i>
  <i name="platform" type="string">CrayXC-Intel16 </i>
  <i name="date" type="string">2020 05 25 </i>
  <i name="time" type="string">17:49:58 </i>
 </generator>
 <incar>
  <i type="string" name="SYSTEM">  ZnO_Bulk</i>
  <i type="int" name="ISTART">     1</i>
  <i type="string" name="PREC">accurate</i>
  <i type="int" name="IALGO">    38</i>
  <i type="logical" name="ADDGRID"> T  </i>
  <i type="int" name="NELM">   200</i>
  <i type="int" name="IBRION">     1</i>
  <i name="EDIFF">      0.00000001</i>
  <i name="EDIFFG">     -0.00010000</i>
  <i type="int" name="NSW">   500</i>
  <i type="int" name="ISIF">     3</i>
  <i type="int" name="IWAVPR">    11</i>
  <i type="int" name="ISYM">     1</i>
  <i name="SYMPREC">      0.00010000</i>
  <i type="int" name="NBLOCK">     1</i>
  <i type="int" name="KBLOCK">    40</i>
  <i name="ENMAX">    950.00000000</i>
  <i type="int" name="NBANDS">    60</i>
  <i type="logical" name="LREAL"> F  </i>
  <i name="TIME">      0.30000000</i>
  <i type="int" name="ISMEAR">    -5</i>
  <i name="SIGMA">      0.01000000</i>
  <i type="logical" name="LCORR"> T  </i>
  <i type="logical" name="LWAVE"> T  </i>
  <i type="logical" name="LCHARG"> F  </i>
  <i type="logical" name="LASPH"> T  </i>
  <v type="int" name="KPOINT_BSE">    -1     0     0     0</v>
  <i type="int" name="NELM">   200</i>
  <i type="logical" name="LHFCALC"> T  </i>
  <i type="string" name="GGA"> PS</i>
  <i name="AEXX">      0.60000000</i>
  <i type="string" name="PRECFOCK">fast</i>
  <i type="logical" name="LASPH"> T  </i>
 </incar>
 <structure name="primitive_cell" >
  <crystal>
   <varray name="basis" >
    <v>       6.72512932      -0.02235178       0.00000070 </v>
    <v>       2.96183783       6.03782913      -0.00000075 </v>
    <v>      -4.84348359      -3.00773783       3.56679743 </v>
   </varray>
   <i name="volume">    145.06658743 </i>
   <varray name="rec_basis" >
    <v>       0.14845397      -0.07282361       0.14018179 </v>
    <v>       0.00054956       0.16535288       0.14018174 </v>
    <v>      -0.00000003       0.00000005       0.28036355 </v>
   </varray>
  </crystal>
  <varray name="positions" >
   <v>      -0.29838259       0.34151254      -0.36422209 </v>
   <v>       0.37500000       0.12500000       0.25000000 </v>
   <v>      -0.12500000      -0.37500000       0.25000000 </v>
   <v>       0.12500000       0.37500000      -0.25000000 </v>
   <v>       0.15848752       0.29426537       0.36010480 </v>
   <v>       0.43416054      -0.20161741       0.13989514 </v>
   <v>      -0.20573463      -0.06583949       0.13577797 </v>
   <v>       0.20573460       0.06583943      -0.13577797 </v>
   <v>       0.29838259      -0.34151254       0.36422209 </v>
   <v>      -0.37500000      -0.12500000      -0.25000000 </v>
   <v>      -0.43416057       0.20161741      -0.13989520 </v>
   <v>      -0.15848746      -0.29426537      -0.36010486 </v>
  </varray>
 </structure>
 <varray name="primitive_index" >
  <v type="int" >        1 </v>
  <v type="int" >        9 </v>
  <v type="int" >       11 </v>
  <v type="int" >       12 </v>
  <v type="int" >        7 </v>
  <v type="int" >        8 </v>
  <v type="int" >        6 </v>
  <v type="int" >        2 </v>
  <v type="int" >        5 </v>
  <v type="int" >       10 </v>
  <v type="int" >        4 </v>
  <v type="int" >        3 </v>
 </varray>
 <kpoints>
  <generation param="Gamma">
   <v type="int" name="divisions">       4        4        4 </v>
   <v name="usershift">      0.00000000       0.00000000       0.00000000 </v>
   <v name="genvec1">      0.25000000      -0.00000000       0.00000000 </v>
   <v name="genvec2">      0.00000000       0.25000000       0.00000000 </v>
   <v name="genvec3">      0.00000000       0.00000000       0.25000000 </v>
   <v name="shift">      0.00000000       0.00000000       0.00000000 </v>
  </generation>
  <varray name="kpointlist" >
   <v>       0.00000000       0.00000000       0.00000000 </v>
   <v>       0.25000000       0.00000000      -0.00000000 </v>
   <v>       0.50000000       0.00000000      -0.00000000 </v>
   <v>       0.25000000       0.25000000       0.00000000 </v>
   <v>       0.50000000       0.25000000       0.00000000 </v>
   <v>      -0.25000000       0.25000000       0.00000000 </v>
   <v>       0.25000000       0.50000000       0.00000000 </v>
   <v>       0.50000000       0.50000000       0.00000000 </v>
   <v>       0.25000000       0.25000000       0.25000000 </v>
   <v>      -0.25000000       0.25000000       0.25000000 </v>
   <v>       0.50000000       0.50000000       0.25000000 </v>
   <v>      -0.25000000       0.50000000       0.25000000 </v>
   <v>      -0.25000000      -0.25000000       0.25000000 </v>
   <v>       0.50000000       0.50000000       0.50000000 </v>
  </varray>
  <varray name="weights" >
   <v>       0.01562500 </v>
   <v>       0.12500000 </v>
   <v>       0.06250000 </v>
   <v>       0.12500000 </v>
   <v>       0.12500000 </v>
   <v>       0.06250000 </v>
   <v>       0.12500000 </v>
   <v>       0.03125000 </v>
   <v>       0.03125000 </v>
   <v>       0.06250000 </v>
   <v>       0.06250000 </v>
   <v>       0.12500000 </v>
   <v>       0.03125000 </v>
   <v>       0.01562500 </v>
  </varray>
  <varray name="tetrahedronlist"  type="int" >
   <v type="int" >        4        1        2        4        6 </v>
   <v type="int" >        4        2        4        5        6 </v>
   <v type="int" >        4        2        4        6        7 </v>
   <v type="int" >        2        4        6        7        9 </v>
   <v type="int" >        2        4        5        6        9 </v>
   <v type="int" >        4        2        3        5        7 </v>
   <v type="int" >        4        2        4        5        7 </v>
   <v type="int" >        8        4        5        7        9 </v>
   <v type="int" >        8        3        4        5        7 </v>
   <v type="int" >        4        4        5        7        7 </v>
   <v type="int" >        4        5        7        7        9 </v>
   <v type="int" >        4        2        3        4        6 </v>
   <v type="int" >        2        3        4        5        6 </v>
   <v type="int" >        4        4        5        6        7 </v>
   <v type="int" >        4        2        2        4        6 </v>
   <v type="int" >        4        2        4        6       10 </v>
   <v type="int" >        2        4        6        7       10 </v>
   <v type="int" >        4        1        2        2        2 </v>
   <v type="int" >        4        2        2        2        6 </v>
   <v type="int" >        4        2        2        6       10 </v>
   <v type="int" >        4        1        2        2        6 </v>
   <v type="int" >        2        2        2        5        6 </v>
   <v type="int" >        2        2        2        5       10 </v>
   <v type="int" >        4        5        5        7        9 </v>
   <v type="int" >        4        4        5        5        7 </v>
   <v type="int" >        4        4        5        8        9 </v>
   <v type="int" >        4        4        7        8        9 </v>
   <v type="int" >        8        5        7        8        9 </v>
   <v type="int" >        2        7        8        9       11 </v>
   <v type="int" >        2        5        8        9       11 </v>
   <v type="int" >        2        5        6        7        7 </v>
   <v type="int" >        4        5        7        7        8 </v>
   <v type="int" >        2        7        7        8       11 </v>
   <v type="int" >        2        6        7        7       10 </v>
   <v type="int" >        2        7        7       10       12 </v>
   <v type="int" >        2        7        7       11       12 </v>
   <v type="int" >        4        2        3        6       10 </v>
   <v type="int" >        2        3        6        7       10 </v>
   <v type="int" >        4        3        7       10       12 </v>
   <v type="int" >        4        2        3        5       10 </v>
   <v type="int" >        4        3        4        5       10 </v>
   <v type="int" >        4        3        4       10       12 </v>
   <v type="int" >        2        3        4        6        7 </v>
   <v type="int" >        2        4        5        6       10 </v>
   <v type="int" >        4        5        5        7        8 </v>
   <v type="int" >        2        5        5        6        7 </v>
   <v type="int" >        2        5        5        6       10 </v>
   <v type="int" >        2        5        5        8       11 </v>
   <v type="int" >        2        5        5       11       12 </v>
   <v type="int" >        2        5        5       10       12 </v>
   <v type="int" >        2        4        7        8       11 </v>
   <v type="int" >        2        4        5        8       11 </v>
   <v type="int" >        4        4        5       11       12 </v>
   <v type="int" >        4        4        7       11       12 </v>
   <v type="int" >        4        4       11       12       13 </v>
   <v type="int" >        4        2        3        7       12 </v>
   <v type="int" >        4        2        4        7       12 </v>
   <v type="int" >        8        2        4       12       13 </v>
   <v type="int" >        8        2        3        4       12 </v>
   <v type="int" >        4        2        2        4       12 </v>
   <v type="int" >        4        2        2       12       13 </v>
   <v type="int" >        2        2        2        7       10 </v>
   <v type="int" >        2        2        2        6        7 </v>
   <v type="int" >        2        3        5        6       10 </v>
   <v type="int" >        4        2        3        7       10 </v>
   <v type="int" >        4        3        5       10       12 </v>
   <v type="int" >        4        3        4        7       10 </v>
   <v type="int" >        4        2        4        5       12 </v>
   <v type="int" >        4        2        3        5       12 </v>
   <v type="int" >        4        1        2        4       13 </v>
   <v type="int" >        4        1        2        2       13 </v>
   <v type="int" >        4        1        2        6       13 </v>
   <v type="int" >        2        6        7        8        9 </v>
   <v type="int" >        2        5        6        8        9 </v>
   <v type="int" >        4        3        5        7       12 </v>
   <v type="int" >        4        4        5        7       12 </v>
   <v type="int" >        4        2        3        4       10 </v>
   <v type="int" >        2        3        5       10       11 </v>
   <v type="int" >        4        3       10       11       12 </v>
   <v type="int" >        2        2        5        5        6 </v>
   <v type="int" >        2        2        5        5       10 </v>
   <v type="int" >        2        5        5       10       11 </v>
   <v type="int" >        2        5        5        6        8 </v>
   <v type="int" >        2        5        5        7       11 </v>
   <v type="int" >        2        4        7        9       11 </v>
   <v type="int" >        2        4        5        9       11 </v>
   <v type="int" >        4        4       11       12       14 </v>
   <v type="int" >        2        7       10       12       12 </v>
   <v type="int" >        2        7       11       12       12 </v>
   <v type="int" >        4       11       12       12       14 </v>
   <v type="int" >        4       10       11       12       12 </v>
   <v type="int" >        4       11       12       12       12 </v>
   <v type="int" >        4       12       12       12       14 </v>
   <v type="int" >        2        4        5       10       11 </v>
   <v type="int" >        4        4       10       11       12 </v>
   <v type="int" >        4        4       11       12       12 </v>
   <v type="int" >        4        4        5        7       11 </v>
   <v type="int" >        2        3        4        7       11 </v>
   <v type="int" >        4        3        4       11       12 </v>
   <v type="int" >        2        3        7       10       11 </v>
   <v type="int" >        2        5       11       12       12 </v>
   <v type="int" >        2        5       10       12       12 </v>
   <v type="int" >        4       11       12       13       14 </v>
   <v type="int" >        4       12       12       13       14 </v>
   <v type="int" >        4        4       12       13       14 </v>
   <v type="int" >        4        2        4       12       12 </v>
   <v type="int" >        4        2       12       12       13 </v>
   <v type="int" >        2        2        7        7       10 </v>
   <v type="int" >        2        2        6        7        7 </v>
   <v type="int" >        2        6        7        7        8 </v>
   <v type="int" >        2        7        7       10       11 </v>
   <v type="int" >        2        5        7        7       11 </v>
   <v type="int" >        2        4        7       10       11 </v>
   <v type="int" >        2        3        4        5       11 </v>
   <v type="int" >        4        2        4        6       13 </v>
   <v type="int" >        2        4        6        7        8 </v>
   <v type="int" >        2        4        5        6        8 </v>
  </varray>
  <i name="volumeweight">      0.00260417 </i>
 </kpoints>
 <parameters>
  <separator name="general" >
   <i type="string" name="SYSTEM">ZnO_Bulk</i>
   <i type="logical" name="LCOMPAT"> F  </i>
  </separator>
  <separator name="electronic" >
   <i type="string" name="PREC">accura</i>
   <i name="ENMAX">    950.00000000</i>
   <i name="ENAUG">    605.39200000</i>
   <i name="EDIFF">      0.00000001</i>
   <i type="int" name="IALGO">    38</i>
   <i type="int" name="IWAVPR">    11</i>
   <i type="int" name="NBANDS">    60</i>
   <i name="NELECT">    100.00000000</i>
   <i type="int" name="TURBO">     0</i>
   <i type="int" name="IRESTART">     0</i>
   <i type="int" name="NREBOOT">     0</i>
   <i type="int" name="NMIN">     0</i>
   <i name="EREF">      0.00000000</i>
   <separator name="electronic smearing" >
    <i type="int" name="ISMEAR">    -5</i>
    <i name="SIGMA">      0.01000000</i>
    <i name="KSPACING">      0.50000000</i>
    <i type="logical" name="KGAMMA"> T  </i>
   </separator>
   <separator name="electronic projectors" >
    <i type="logical" name="LREAL"> F  </i>
    <v name="ROPT">      0.00000000      0.00000000      0.00000000</v>
    <i type="int" name="LMAXPAW">  -100</i>
    <i type="int" name="LMAXMIX">     2</i>
    <i type="logical" name="NLSPLINE"> F  </i>
   </separator>
   <separator name="electronic startup" >
    <i type="int" name="ISTART">     1</i>
    <i type="int" name="ICHARG">     0</i>
    <i type="int" name="INIWAV">     1</i>
   </separator>
   <separator name="electronic spin" >
    <i type="int" name="ISPIN">     1</i>
    <i type="logical" name="LNONCOLLINEAR"> F  </i>
    <v name="MAGMOM">      1.00000000      1.00000000      1.00000000      1.00000000      1.00000000      1.00000000      1.00000000      1.00000000      1.00000000      1.00000000      1.00000000      1.00000000</v>
    <i name="NUPDOWN">     -1.00000000</i>
    <i type="logical" name="LSORBIT"> F  </i>
    <v name="SAXIS">      0.00000000      0.00000000      1.00000000</v>
    <i type="logical" name="LSPIRAL"> F  </i>
    <v name="QSPIRAL">      0.00000000      0.00000000      0.00000000</v>
    <i type="logical" name="LZEROZ"> F  </i>
   </separator>
   <separator name="electronic exchange-correlation" >
    <i type="logical" name="LASPH"> T  </i>
    <i type="logical" name="LMETAGGA"> F  </i>
   </separator>
   <separator name="electronic convergence" >
    <i type="int" name="NELM">   200</i>
    <i type="int" name="NELMDL">     0</i>
    <i type="int" name="NELMIN">     2</i>
    <i name="ENINI">    950.00000000</i>
    <separator name="electronic convergence detail" >
     <i type="logical" name="LDIAG"> T  </i>
     <i type="logical" name="LSUBROT"> F  </i>
     <i name="WEIMIN">      0.00100000</i>
     <i name="EBREAK">      0.00000000</i>
     <i name="DEPER">      0.30000000</i>
     <i type="int" name="NRMM">     4</i>
     <i name="TIME">      0.30000000</i>
    </separator>
   </separator>
   <separator name="electronic mixer" >
    <i name="AMIX">      0.40000000</i>
    <i name="BMIX">      1.00000000</i>
    <i name="AMIN">      0.10000000</i>
    <i name="AMIX_MAG">      1.60000000</i>
    <i name="BMIX_MAG">      1.00000000</i>
    <separator name="electronic mixer details" >
     <i type="int" name="IMIX">     1</i>
     <i type="logical" name="MIXFIRST"> F  </i>
     <i type="int" name="MAXMIX">   -45</i>
     <i name="WC">    100.00000000</i>
     <i type="int" name="INIMIX">     1</i>
     <i type="int" name="MIXPRE">     1</i>
     <i type="int" name="MREMOVE">     5</i>
    </separator>
   </separator>
   <separator name="electronic dipolcorrection" >
    <i type="logical" name="LDIPOL"> F  </i>
    <i type="logical" name="LMONO"> F  </i>
    <i type="int" name="IDIPOL">     0</i>
    <i name="EPSILON">      1.00000000</i>
    <v name="DIPOL">   -100.00000000   -100.00000000   -100.00000000</v>
    <i name="EFIELD">      0.00000000</i>
   </separator>
  </separator>
  <separator name="grids" >
   <i type="int" name="NGX">    70</i>
   <i type="int" name="NGY">    70</i>
   <i type="int" name="NGZ">    70</i>
   <i type="int" name="NGXF">   140</i>
   <i type="int" name="NGYF">   140</i>
   <i type="int" name="NGZF">   140</i>
   <i type="logical" name="ADDGRID"> T  </i>
  </separator>
  <separator name="ionic" >
   <i type="int" name="NSW">   480</i>
   <i type="int" name="IBRION">     1</i>
   <i type="int" name="MDALGO">     0</i>
   <i type="int" name="ISIF">     3</i>
   <i name="PSTRESS">      0.00000000</i>
   <i name="EDIFFG">     -0.00010000</i>
   <i type="int" name="NFREE">     0</i>
   <i name="POTIM">      0.50000000</i>
   <i name="SMASS">     -3.00000000</i>
   <i name="SCALEE">      1.00000000</i>
  </separator>
  <separator name="ionic md" >
   <i name="TEBEG">      0.00010000</i>
   <i name="TEEND">      0.00010000</i>
   <i type="int" name="NBLOCK">     1</i>
   <i type="int" name="KBLOCK">    40</i>
   <i type="int" name="NPACO">   256</i>
   <i name="APACO">     16.00000000</i>
  </separator>
  <separator name="symmetry" >
   <i type="int" name="ISYM">     1</i>
   <i name="SYMPREC">      0.00010000</i>
  </separator>
  <separator name="dos" >
   <i type="int" name="LORBIT">     0</i>
   <v name="RWIGS">     -1.00000000     -1.00000000     -1.00000000</v>
   <i type="int" name="NEDOS">   301</i>
   <i name="EMIN">     10.00000000</i>
   <i name="EMAX">    -10.00000000</i>
   <i name="EFERMI">      0.00000000</i>
  </separator>
  <separator name="writing" >
   <i type="int" name="NWRITE">     2</i>
   <i type="logical" name="LWAVE"> T  </i>
   <i type="logical" name="LDOWNSAMPLE"> F  </i>
   <i type="logical" name="LCHARG"> F  </i>
   <i type="logical" name="LPARD"> F  </i>
   <i type="logical" name="LVTOT"> F  </i>
   <i type="logical" name="LVHAR"> F  </i>
   <i type="logical" name="LELF"> F  </i>
   <i type="logical" name="LOPTICS"> F  </i>
   <v name="STM">      0.00000000      0.00000000      0.00000000      0.00000000      0.00000000      0.00000000      0.00000000</v>
  </separator>
  <separator name="performance" >
   <i type="int" name="NPAR">     1</i>
   <i type="int" name="NSIM">     4</i>
   <i type="int" name="NBLK">    -1</i>
   <i type="logical" name="LPLANE"> T  </i>
   <i type="logical" name="LSCALAPACK"> T  </i>
   <i type="logical" name="LSCAAWARE"> F  </i>
   <i type="logical" name="LSCALU"> F  </i>
   <i type="logical" name="LASYNC"> F  </i>
   <i type="logical" name="LORBITALREAL"> F  </i>
  </separator>
  <separator name="miscellaneous" >
   <i type="int" name="IDIOT">     3</i>
   <i type="int" name="ISPECIAL">     0</i>
   <i type="logical" name="LMUSIC"> F  </i>
   <v name="POMASS">     16.00000000     50.94100000    208.98000000</v>
   <v name="DARWINR">      0.00000000      0.00000000      0.00000000</v>
   <v name="DARWINV">      1.00000000      1.00000000      1.00000000</v>
   <i type="logical" name="LCORR"> T  </i>
  </separator>
  <i type="logical" name="GGA_COMPAT"> T  </i>
  <i type="logical" name="LBERRY"> F  </i>
  <i type="int" name="ICORELEVEL">     0</i>
  <i type="logical" name="LDAU"> F  </i>
  <i type="int" name="I_CONSTRAINED_M">     0</i>
  <separator name="electronic exchange-correlation" >
   <i type="string" name="GGA">PS</i>
   <i type="int" name="VOSKOWN">     0</i>
   <i type="logical" name="LHFCALC"> T  </i>
   <i type="string" name="PRECFOCK">fast</i>
   <i type="logical" name="LSYMGRAD"> F  </i>
   <i type="logical" name="LHFONE"> F  </i>
   <i type="logical" name="LRHFCALC"> F  </i>
   <i type="logical" name="LTHOMAS"> F  </i>
   <i type="logical" name="LMODELHF"> F  </i>
   <i name="ENCUT4O">     -1.00000000</i>
   <i type="int" name="EXXOEP">     0</i>
   <i type="int" name="FOURORBIT">     0</i>
   <i name="AEXX">      0.60000000</i>
   <i name="HFALPHA">     -1.00000000</i>
   <i name="MCALPHA">      0.00000000</i>
   <i name="ALDAX">      0.40000000</i>
   <i name="AGGAX">      0.40000000</i>
   <i name="ALDAC">      1.00000000</i>
   <i name="AGGAC">      1.00000000</i>
   <i type="int" name="NKREDX">     1</i>
   <i type="int" name="NKREDY">     1</i>
   <i type="int" name="NKREDZ">     1</i>
   <i type="logical" name="SHIFTRED"> F  </i>
   <i type="logical" name="ODDONLY"> F  </i>
   <i type="logical" name="EVENONLY"> F  </i>
   <i type="int" name="LMAXFOCK">     4</i>
   <i type="int" name="NMAXFOCKAE">     1</i>
   <i type="logical" name="LFOCKAEDFT"> F  </i>
   <i name="HFSCREEN">      0.00000000</i>
   <i name="HFSCREENC">      0.00000000</i>
   <i type="int" name="NBANDSGWLOW">     1</i>
  </separator>
  <separator name="vdW DFT" >
   <i type="logical" name="LUSE_VDW"> F  </i>
   <i name="Zab_VDW">     -0.84910000</i>
   <i name="PARAM1">      0.12340000</i>
   <i name="PARAM2">      1.00000000</i>
   <i name="PARAM3">      0.00000000</i>
  </separator>
  <separator name="model GW" >
   <i type="int" name="MODEL_GW">     0</i>
   <i name="MODEL_EPS0">      7.25332937</i>
   <i name="MODEL_ALPHA">      1.00000000</i>
  </separator>
  <separator name="linear response parameters" >
   <i type="logical" name="LEPSILON"> F  </i>
   <i type="logical" name="LRPA"> F  </i>
   <i type="logical" name="LNABLA"> F  </i>
   <i type="logical" name="LVEL"> F  </i>
   <i type="int" name="KINTER">     0</i>
   <i name="CSHIFT">      0.10000000</i>
   <i name="OMEGAMAX">     -1.00000000</i>
   <i name="DEG_THRESHOLD">      0.00200000</i>
   <i name="RTIME">     -0.10000000</i>
   <i name="WPLASMAI">      0.00000000</i>
   <v name="DFIELD">      0.00000000      0.00000000      0.00000000</v>
   <v name="WPLASMA">      0.00000000      0.00000000      0.00000000      0.00000000      0.00000000      0.00000000      0.00000000      0.00000000      0.00000000</v>
  </separator>
  <separator name="orbital magnetization" >
   <i type="logical" name="NUCIND"> F  </i>
   <v name="MAGPOS">      0.00000000      0.00000000      0.00000000</v>
   <i type="logical" name="LNICSALL"> T  </i>
   <i type="logical" name="ORBITALMAG"> F  </i>
   <i type="logical" name="LMAGBLOCH"> F  </i>
   <i type="logical" name="LCHIMAG"> F  </i>
   <i type="logical" name="LGAUGE"> T  </i>
   <i type="int" name="MAGATOM">     0</i>
   <v name="MAGDIPOL">      0.00000000      0.00000000      0.00000000</v>
   <v name="AVECCONST">      0.00000000      0.00000000      0.00000000</v>
  </separator>
  <separator name="response functions" >
   <i type="logical" name="LADDER"> F  </i>
   <i type="logical" name="LRPAFORCE"> F  </i>
   <i type="logical" name="LFXC"> F  </i>
   <i type="logical" name="LHARTREE"> T  </i>
   <i type="int" name="IBSE">     0</i>
   <v type="int" name="KPOINT">    -1     0     0     0</v>
   <i type="logical" name="LTCTE"> F  </i>
   <i type="logical" name="LTETE"> F  </i>
   <i type="logical" name="LTRIPLET"> F  </i>
   <i type="logical" name="LFXCEPS"> F  </i>
   <i type="logical" name="LFXHEG"> F  </i>
   <i type="int" name="NATURALO">     2</i>
   <i type="logical" name="L2ORDER"> F  </i>
   <i type="logical" name="LMP2LT"> F  </i>
   <i type="logical" name="LUSEW"> F  </i>
   <i name="ENCUTGW">     -2.00000000</i>
   <i name="ENCUTGWSOFT">     -2.00000000</i>
   <i name="ENCUTLF">     -1.00000000</i>
   <i type="int" name="LMAXMP2">    -1</i>
   <i name="SCISSOR">      0.00000000</i>
   <i type="int" name="NOMEGA">     0</i>
   <i type="int" name="NOMEGAR">     0</i>
   <i type="int" name="NBANDSGW">    -1</i>
   <i type="int" name="NBANDSO">    -1</i>
   <i type="int" name="NBANDSV">    -1</i>
   <i type="int" name="NELM">   200</i>
   <i type="int" name="NELMHF">     1</i>
   <i type="int" name="DIM">     3</i>
   <i type="int" name="ANTIRES">     0</i>
   <i name="OMEGAMAX">    -30.00000000</i>
   <i name="OMEGAMIN">    -30.00000000</i>
   <i name="OMEGATL">   -200.00000000</i>
   <i type="int" name="OMEGAGRID">   140</i>
   <i name="CSHIFT">     -0.10000000</i>
   <i type="logical" name="SELFENERGY"> F  </i>
   <i type="logical" name="LSPECTRAL"> F  </i>
   <i type="logical" name="LSPECTRALGW"> F  </i>
   <i type="logical" name="LSINGLES"> F  </i>
   <i type="logical" name="LFERMIGW"> F  </i>
   <i type="logical" name="ODDONLYGW"> F  </i>
   <i type="logical" name="EVENONLYGW"> F  </i>
   <i type="int" name="NKREDLFX">     1</i>
   <i type="int" name="NKREDLFY">     1</i>
   <i type="int" name="NKREDLFZ">     1</i>
   <i type="int" name="MAXMEM">  2800</i>
   <i type="int" name="TELESCOPE">     0</i>
   <i type="int" name="TAUPAR">     1</i>
   <i type="int" name="OMEGAPAR">    -1</i>
   <i name="LAMBDA">      1.00000000</i>
  </separator>
  <separator name="External order field" >
   <i name="OFIELD_KAPPA">      0.00000000</i>
   <v name="OFIELD_K">      0.00000000      0.00000000      0.00000000</v>
   <i name="OFIELD_Q6_NEAR">      0.00000000</i>
   <i name="OFIELD_Q6_FAR">      0.00000000</i>
   <i name="OFIELD_A">      0.00000000</i>
  </separator>
 </parameters>
 <atominfo>
  <atoms>      12 </atoms>
  <types>       3 </types>
  <array name="atoms" >
   <dimension dim="1">ion</dimension>
   <field type="string">element</field>
   <field type="int">atomtype</field>
   <set>
    <rc><c>O </c><c>   1</c></rc>
    <rc><c>O </c><c>   1</c></rc>
    <rc><c>O </c><c>   1</c></rc>
    <rc><c>O </c><c>   1</c></rc>
    <rc><c>O </c><c>   1</c></rc>
    <rc><c>O </c><c>   1</c></rc>
    <rc><c>O </c><c>   1</c></rc>
    <rc><c>O </c><c>   1</c></rc>
    <rc><c>V </c><c>   2</c></rc>
    <rc><c>V </c><c>   2</c></rc>
    <rc><c>Bi</c><c>   3</c></rc>
    <rc><c>Bi</c><c>   3</c></rc>
   </set>
  </array>
  <array name="atomtypes" >
   <dimension dim="1">type</dimension>
   <field type="int">atomspertype</field>
   <field type="string">element</field>
   <field>mass</field>
   <field>valence</field>
   <field type="string">pseudopotential</field>
   <set>
    <rc><c>   8</c><c>O </c><c>     16.00000000</c><c>      6.00000000</c><c>  PAW_PBE O 08Apr2002                   </c></rc>
    <rc><c>   2</c><c>V </c><c>     50.94100000</c><c>     11.00000000</c><c>  PAW_PBE V_pv 07Sep2000                </c></rc>
    <rc><c>   2</c><c>Bi</c><c>    208.98000000</c><c>     15.00000000</c><c>  PAW_PBE Bi_d 06Sep2000                </c></rc>
   </set>
  </array>
 </atominfo>
 <structure name="initialpos" >
  <crystal>
   <varray name="basis" >
    <v>       6.72512932      -0.02235178       0.00000070 </v>
    <v>       2.96183783       6.03782913      -0.00000075 </v>
    <v>      -4.84348359      -3.00773783       3.56679743 </v>
   </varray>
   <i name="volume">    145.06658743 </i>
   <varray name="rec_basis" >
    <v>       0.14845397      -0.07282361       0.14018179 </v>
    <v>       0.00054956       0.16535288       0.14018174 </v>
    <v>      -0.00000003       0.00000005       0.28036355 </v>
   </varray>
  </crystal>
  <varray name="positions" >
   <v>       0.70161741       0.34151254       0.63577791 </v>
   <v>       0.20573460       0.06583943       0.86422203 </v>
   <v>       0.84151254       0.70573463       0.63989514 </v>
   <v>       0.56583943       0.20161741       0.86010480 </v>
   <v>       0.29838259       0.65848746       0.36422209 </v>
   <v>       0.79426537       0.93416051       0.13577797 </v>
   <v>       0.15848752       0.29426537       0.36010480 </v>
   <v>       0.43416054       0.79838259       0.13989514 </v>
   <v>       0.37500000       0.12500000       0.25000000 </v>
   <v>       0.62500000       0.87500000       0.75000000 </v>
   <v>       0.87500000       0.62500000       0.25000000 </v>
   <v>       0.12500000       0.37500000       0.75000000 </v>
  </varray>
 </structure>
 <calculation>
  <scstep>
   <time name="dav">  357.32  357.55</time>
   <time name="total">  359.05  359.30</time>
   <energy>
    <i name="alphaZ">    457.84835761 </i>
    <i name="ewald">  -7703.28490120 </i>
    <i name="hartreedc">  -2426.12253735 </i>
    <i name="XCdc">    168.68011135 </i>
    <i name="pawpsdc">  13705.62303277 </i>
    <i name="pawaedc"> -13584.13839073 </i>
    <i name="eentropy">      0.00000000 </i>
    <i name="bandstr">  -1475.53184642 </i>
    <i name="atom">   9926.69705820 </i>
    <i name="e_fr_energy">   -163.18356912 </i>
    <i name="e_wo_entrp">   -163.18356912 </i>
    <i name="e_0_energy">   -163.18356912 </i>
   </energy>
  </scstep>
  <scstep>
   <time name="dav">  274.23  274.41</time>
   <time name="total">  275.10  275.27</time>
   <energy>
    <i name="alphaZ">    457.84835761 </i>
    <i name="ewald">  -7703.28490120 </i>
    <i name="hartreedc">  -2426.12249573 </i>
    <i name="XCdc">    168.68011503 </i>
    <i name="pawpsdc">  13705.62750008 </i>
    <i name="pawaedc"> -13584.14287822 </i>
    <i name="eentropy">      0.00000000 </i>
    <i name="bandstr">  -1475.53196362 </i>
    <i name="atom">   9926.69705820 </i>
    <i name="e_fr_energy">   -163.18356912 </i>
    <i name="e_wo_entrp">   -163.18356912 </i>
    <i name="e_0_energy">   -163.18356912 </i>
   </energy>
  </scstep>
  <structure>
   <crystal>
    <varray name="basis" >
     <v>       6.72512932      -0.02235178       0.00000070 </v>
     <v>       2.96183783       6.03782913      -0.00000075 </v>
     <v>      -4.84348359      -3.00773783       3.56679743 </v>
    </varray>
    <i name="volume">    145.06658743 </i>
    <varray name="rec_basis" >
     <v>       0.14845397      -0.07282361       0.14018179 </v>
     <v>       0.00054956       0.16535288       0.14018174 </v>
     <v>      -0.00000003       0.00000005       0.28036355 </v>
    </varray>
   </crystal>
   <varray name="positions" >
    <v>       0.70161741       0.34151254       0.63577791 </v>
    <v>       0.20573460       0.06583943       0.86422203 </v>
    <v>       0.84151254       0.70573463       0.63989514 </v>
    <v>       0.56583943       0.20161741       0.86010480 </v>
    <v>       0.29838259       0.65848746       0.36422209 </v>
    <v>       0.79426537       0.93416051       0.13577797 </v>
    <v>       0.15848752       0.29426537       0.36010480 </v>
    <v>       0.43416054       0.79838259       0.13989514 </v>
    <v>       0.37500000       0.12500000       0.25000000 </v>
    <v>       0.62500000       0.87500000       0.75000000 </v>
    <v>       0.87500000       0.62500000       0.25000000 </v>
    <v>       0.12500000       0.37500000       0.75000000 </v>
   </varray>
  </structure>
  <varray name="forces" >
   <v>      -0.00015480      -0.00010998      -0.00028557 </v>
   <v>      -0.00016722      -0.00008998       0.00028557 </v>
   <v>      -0.00031166       0.00014262      -0.00001177 </v>
   <v>      -0.00001035      -0.00034258       0.00001177 </v>
   <v>       0.00015480       0.00010998       0.00028557 </v>
   <v>       0.00016722       0.00008998      -0.00028557 </v>
   <v>       0.00031166      -0.00014262       0.00001177 </v>
   <v>       0.00001035       0.00034258      -0.00001177 </v>
   <v>       0.00000000      -0.00000000       0.00000000 </v>
   <v>       0.00000000       0.00000000       0.00000000 </v>
   <v>       0.00000000       0.00000000       0.00000000 </v>
   <v>       0.00000000       0.00000000       0.00000000 </v>
  </varray>
  <varray name="stress" >
   <v>       0.03404483       0.00529847       0.00000916 </v>
   <v>       0.00529847       0.02880276      -0.00001474 </v>
   <v>      -0.00000915       0.00001474       0.02551249 </v>
  </varray>
  <energy>
   <i name="e_fr_energy">   -163.18356912 </i>
   <i name="e_wo_entrp">   -163.18356912 </i>
   <i name="e_0_energy">      0.00000000 </i>
  </energy>
  <time name="totalsc"> 1010.26 1016.93</time>
 </calculation>
 <calculation>
  <scstep>
   <time name="dav">  482.85  483.16</time>
   <time name="total">  484.59  484.91</time>
   <energy>
    <i name="alphaZ">    457.83363194 </i>
    <i name="ewald">  -7703.18379151 </i>
    <i name="hartreedc">  -2426.11067808 </i>
    <i name="XCdc">    168.67829604 </i>
    <i name="pawpsdc">  13705.62419157 </i>
    <i name="pawaedc"> -13584.13957123 </i>
    <i name="eentropy">      0.00000000 </i>
    <i name="bandstr">  -1475.62070187 </i>
    <i name="atom">   9926.69705820 </i>
    <i name="e_fr_energy">   -163.18356972 </i>
    <i name="e_wo_entrp">   -163.18356972 </i>
    <i name="e_0_energy">   -163.18356972 </i>
   </energy>
  </scstep>
  <scstep>
   <time name="dav">  427.84  428.11</time>
   <time name="total">  429.59  429.86</time>
   <energy>
    <i name="e_fr_energy">   -163.18356979 </i>
    <i name="e_wo_entrp">   -163.18356979 </i>
    <i name="e_0_energy">   -163.18356979 </i>
   </energy>
  </scstep>
  <scstep>
   <time name="dav">  543.55  543.90</time>
   <time name="total">  545.30  545.65</time>
   <energy>
    <i name="e_fr_energy">   -163.18356955 </i>
    <i name="e_wo_entrp">   -163.18356955 </i>
    <i name="e_0_energy">   -163.18356955 </i>
   </energy>
  </scstep>
  <scstep>
   <time name="dav">  513.63  513.95</time>
   <time name="total">  515.38  515.71</time>
   <energy>
    <i name="e_fr_energy">   -163.18356954 </i>
    <i name="e_wo_entrp">   -163.18356954 </i>
    <i name="e_0_energy">   -163.18356954 </i>
   </energy>
  </scstep>
  <scstep>
   <time name="dav">  429.41  429.68</time>
   <time name="total">  430.26  430.53</time>
   <energy>
    <i name="alphaZ">    457.83363194 </i>
    <i name="ewald">  -7703.18379151 </i>
    <i name="hartreedc">  -2426.17895393 </i>
    <i name="XCdc">    168.67983155 </i>
    <i name="pawpsdc">  13705.45922084 </i>
    <i name="pawaedc"> -13583.97284787 </i>
    <i name="eentropy">      0.00000000 </i>
    <i name="bandstr">  -1475.56231472 </i>
    <i name="atom">   9926.69705820 </i>
    <i name="e_fr_energy">   -163.18356954 </i>
    <i name="e_wo_entrp">   -163.18356954 </i>
    <i name="e_0_energy">   -163.18356954 </i>
   </energy>
  </scstep>
  <structure>
   <crystal>
    <varray name="basis" >
     <v>       6.72521262      -0.02233904       0.00000073 </v>
     <v>       2.96188618       6.03789815      -0.00000077 </v>
     <v>      -4.84354942      -3.00777869       3.56683056 </v>
    </varray>
    <i name="volume">    145.07125333 </i>
    <varray name="rec_basis" >
     <v>       0.14845227      -0.07282313       0.14018049 </v>
     <v>       0.00054923       0.16535114       0.14018044 </v>
     <v>      -0.00000003       0.00000005       0.28036095 </v>
    </varray>
   </crystal>
   <varray name="positions" >
    <v>       0.70161475       0.34150973       0.63577405 </v>
    <v>       0.20573565       0.06584064       0.86422589 </v>
    <v>       0.84150973       0.70573568       0.63989498 </v>
    <v>       0.56584064       0.20161475       0.86010496 </v>
    <v>       0.29838525       0.65849027       0.36422595 </v>
    <v>       0.79426432       0.93415930       0.13577411 </v>
    <v>       0.15849033       0.29426432       0.36010496 </v>
    <v>       0.43415933       0.79838525       0.13989498 </v>
    <v>       0.37500000       0.12500000       0.25000000 </v>
    <v>       0.62500000       0.87500000       0.75000000 </v>
    <v>       0.87500000       0.62500000       0.25000000 </v>
    <v>       0.12500000       0.37500000       0.75000000 </v>
   </varray>
  </structure>
  <varray name="forces" >
   <v>      -0.00003761      -0.00014754      -0.00005134 </v>
   <v>      -0.00014892       0.00003171       0.00005134 </v>
   <v>      -0.00012034      -0.00001430      -0.00010550 </v>
   <v>      -0.00006618      -0.00010153       0.00010550 </v>
   <v>       0.00003761       0.00014754       0.00005134 </v>
   <v>       0.00014892      -0.00003171      -0.00005134 </v>
   <v>       0.00012034       0.00001430       0.00010550 </v>
   <v>       0.00006618       0.00010153      -0.00010550 </v>
   <v>      -0.00000000       0.00000000       0.00000000 </v>
   <v>      -0.00000000       0.00000000      -0.00000000 </v>
   <v>      -0.00000000       0.00000000      -0.00000000 </v>
   <v>      -0.00000000      -0.00000000       0.00000000 </v>
  </varray>
  <varray name="stress" >
   <v>      -0.00559696      -0.07840876       0.00000924 </v>
   <v>      -0.07840876       0.07197704      -0.00001485 </v>
   <v>      -0.00000922       0.00001487       0.12066788 </v>
  </varray>
  <energy>
   <i name="e_fr_energy">   -163.18356954 </i>
   <i name="e_wo_entrp">   -163.18356954 </i>
   <i name="e_0_energy">      0.00000000 </i>
  </energy>
  <time name="totalsc"> 2786.44 2788.74</time>
 </calculation>
 <calculation>
  <scstep>
   <time name="dav">  475.03  475.33</time>
   <time name="total">  476.75  477.08</time>
   <energy>
    <i name="alphaZ">    457.82693342 </i>
    <i name="ewald">  -7703.14575385 </i>
    <i name="hartreedc">  -2426.16629938 </i>
    <i name="XCdc">    168.67893133 </i>
    <i name="pawpsdc">  13705.47500792 </i>
    <i name="pawaedc"> -13583.98899266 </i>
    <i name="eentropy">      0.00000000 </i>
    <i name="bandstr">  -1475.60081484 </i>
    <i name="atom">   9926.69705820 </i>
    <i name="e_fr_energy">   -163.18357008 </i>
    <i name="e_wo_entrp">   -163.18357008 </i>
    <i name="e_0_energy">   -163.18357008 </i>
   </energy>
  </scstep>
  <scstep>
   <time name="dav">  512.59  512.92</time>
   <time name="total">  514.34  514.67</time>
   <energy>
    <i name="e_fr_energy">   -163.18357010 </i>
    <i name="e_wo_entrp">   -163.18357010 </i>
    <i name="e_0_energy">   -163.18357010 </i>
   </energy>
  </scstep>
  <scstep>
   <time name="dav">  450.21  450.49</time>
   <time name="total">  451.97  452.26</time>
   <energy>
    <i name="e_fr_energy">   -163.18357004 </i>
    <i name="e_wo_entrp">   -163.18357004 </i>
    <i name="e_0_energy">   -163.18357004 </i>
   </energy>
  </scstep>
  <scstep>
   <time name="dav">  456.10  456.39</time>
   <time name="total">  457.86  458.15</time>
   <energy>
    <i name="e_fr_energy">   -163.18357002 </i>
    <i name="e_wo_entrp">   -163.18357002 </i>
    <i name="e_0_energy">   -163.18357002 </i>
   </energy>
  </scstep>
  <scstep>
   <time name="dav">  287.75  287.93</time>
   <time name="total">  288.61  288.79</time>
   <energy>
    <i name="alphaZ">    457.82693342 </i>
    <i name="ewald">  -7703.14575385 </i>
    <i name="hartreedc">  -2426.19411697 </i>
    <i name="XCdc">    168.67956550 </i>
    <i name="pawpsdc">  13705.23232707 </i>
    <i name="pawaedc"> -13583.74618526 </i>
    <i name="eentropy">      0.00000000 </i>
    <i name="bandstr">  -1475.57675163 </i>
    <i name="atom">   9926.69705820 </i>
    <i name="e_fr_energy">   -163.18357002 </i>
    <i name="e_wo_entrp">   -163.18357002 </i>
    <i name="e_0_energy">   -163.18357002 </i>
   </energy>
  </scstep>
  <structure>
   <crystal>
    <varray name="basis" >
     <v>       6.72520981      -0.02238042       0.00000073 </v>
     <v>       2.96184785       6.03791398      -0.00000077 </v>
     <v>      -4.84352886      -3.00776591       3.56686422 </v>
    </varray>
    <i name="volume">    145.07337588 </i>
    <varray name="rec_basis" >
     <v>       0.14845189      -0.07282181       0.14017917 </v>
     <v>       0.00055024       0.16535021       0.14017911 </v>
     <v>      -0.00000003       0.00000005       0.28035830 </v>
    </varray>
   </crystal>
   <varray name="positions" >
    <v>       0.70161473       0.34150940       0.63577390 </v>
    <v>       0.20573547       0.06584077       0.86422604 </v>
    <v>       0.84150940       0.70573550       0.63989467 </v>
    <v>       0.56584077       0.20161473       0.86010527 </v>
    <v>       0.29838527       0.65849060       0.36422610 </v>
    <v>       0.79426450       0.93415917       0.13577396 </v>
    <v>       0.15849066       0.29426450       0.36010527 </v>
    <v>       0.43415920       0.79838527       0.13989467 </v>
    <v>       0.37500000       0.12500000       0.25000000 </v>
    <v>       0.62500000       0.87500000       0.75000000 </v>
    <v>       0.87500000       0.62500000       0.25000000 </v>
    <v>       0.12500000       0.37500000       0.75000000 </v>
   </varray>
  </structure>
  <varray name="forces" >
   <v>      -0.00016985      -0.00013802      -0.00031779 </v>
   <v>      -0.00019902      -0.00009105       0.00031779 </v>
   <v>      -0.00035209       0.00015544      -0.00002764 </v>
   <v>      -0.00001679      -0.00038451       0.00002764 </v>
   <v>       0.00016985       0.00013802       0.00031779 </v>
   <v>       0.00019902       0.00009105      -0.00031779 </v>
   <v>       0.00035209      -0.00015544       0.00002764 </v>
   <v>       0.00001679       0.00038451      -0.00002764 </v>
   <v>       0.00000000      -0.00000000      -0.00000000 </v>
   <v>      -0.00000000      -0.00000000      -0.00000000 </v>
   <v>       0.00000000      -0.00000000      -0.00000000 </v>
   <v>       0.00000000      -0.00000000      -0.00000000 </v>
  </varray>
  <varray name="stress" >
   <v>       0.08931337      -0.24578595       0.00000989 </v>
   <v>      -0.24578595       0.33248266      -0.00001582 </v>
   <v>      -0.00000979       0.00001588       0.48511264 </v>
  </varray>
  <energy>
   <i name="e_fr_energy">   -163.18357002 </i>
   <i name="e_wo_entrp">   -163.18357002 </i>
   <i name="e_0_energy">      0.00000000 </i>
  </energy>
  <time name="totalsc"> 2572.50 2574.81</time>
 </calculation>
 <calculation>
  <scstep>
   <time name="dav">  506.82  507.14</time>
   <time name="total">  508.56  508.90</time>
   <energy>
    <i name="alphaZ">    457.84349953 </i>
    <i name="ewald">  -7703.24042214 </i>
    <i name="hartreedc">  -2426.22151860 </i>
    <i name="XCdc">    168.68167934 </i>
    <i name="pawpsdc">  13705.23271969 </i>
    <i name="pawaedc"> -13583.74672409 </i>
    <i name="eentropy">      0.00000000 </i>
    <i name="bandstr">  -1475.48191103 </i>
    <i name="atom">   9926.69705820 </i>
    <i name="e_fr_energy">   -163.18356970 </i>
    <i name="e_wo_entrp">   -163.18356970 </i>
    <i name="e_0_energy">   -163.18356970 </i>
   </energy>
  </scstep>
  <scstep>
   <time name="dav">  470.85  471.15</time>
   <time name="total">  472.60  472.90</time>
   <energy>
    <i name="e_fr_energy">   -163.18356951 </i>
    <i name="e_wo_entrp">   -163.18356951 </i>
    <i name="e_0_energy">   -163.18356951 </i>
   </energy>
  </scstep>
  <scstep>
   <time name="dav">  555.73  556.08</time>
   <time name="total">  557.48  557.83</time>
   <energy>
    <i name="e_fr_energy">   -163.18356920 </i>
    <i name="e_wo_entrp">   -163.18356920 </i>
    <i name="e_0_energy">   -163.18356920 </i>
   </energy>
  </scstep>
  <scstep>
   <time name="dav">  519.15  519.48</time>
   <time name="total">  520.90  521.23</time>
   <energy>
    <i name="e_fr_energy">   -163.18356919 </i>
    <i name="e_wo_entrp">   -163.18356919 </i>
    <i name="e_0_energy">   -163.18356919 </i>
   </energy>
  </scstep>
  <scstep>
   <time name="dav">  397.08  397.32</time>
   <time name="total">  398.83  399.08</time>
   <energy>
    <i name="e_fr_energy">   -163.18356921 </i>
    <i name="e_wo_entrp">   -163.18356921 </i>
    <i name="e_0_energy">   -163.18356921 </i>
   </energy>
  </scstep>
  <scstep>
   <time name="dav">  283.72  283.90</time>
   <time name="total">  285.47  285.65</time>
   <energy>
    <i name="e_fr_energy">   -163.18356922 </i>
    <i name="e_wo_entrp">   -163.18356922 </i>
    <i name="e_0_energy">   -163.18356922 </i>
   </energy>
  </scstep>
  <scstep>
   <time name="dav">  283.24  283.42</time>
   <time name="total">  285.00  285.18</time>
   <energy>
    <i name="e_fr_energy">   -163.18356923 </i>
    <i name="e_wo_entrp">   -163.18356923 </i>
    <i name="e_0_energy">   -163.18356923 </i>
   </energy>
  </scstep>
  <scstep>
   <time name="dav">  281.46  281.64</time>
   <time name="total">  282.31  282.49</time>
   <energy>
    <i name="alphaZ">    457.84349953 </i>
    <i name="ewald">  -7703.24042214 </i>
    <i name="hartreedc">  -2426.15147202 </i>
    <i name="XCdc">    168.68009314 </i>
    <i name="pawpsdc">  13705.83992502 </i>
    <i name="pawaedc"> -13584.35520504 </i>
    <i name="eentropy">      0.00000000 </i>
    <i name="bandstr">  -1475.54268904 </i>
    <i name="atom">   9926.69705820 </i>
    <i name="e_fr_energy">   -163.18356924 </i>
    <i name="e_wo_entrp">   -163.18356924 </i>
    <i name="e_0_energy">   -163.18356924 </i>
   </energy>
  </scstep>
  <structure>
   <crystal>
    <varray name="basis" >
     <v>       6.72516429      -0.02233890       0.00000073 </v>
     <v>       2.96186488       6.03785477      -0.00000078 </v>
     <v>      -4.84351461      -3.00775706       3.56680494 </v>
    </varray>
    <i name="volume">    145.06812670 </i>
    <varray name="rec_basis" >
     <v>       0.14845334      -0.07282365       0.14018150 </v>
     <v>       0.00054923       0.16535233       0.14018144 </v>
     <v>      -0.00000003       0.00000005       0.28036296 </v>
    </varray>
   </crystal>
   <varray name="positions" >
    <v>       0.70161523       0.34150945       0.63577444 </v>
    <v>       0.20573498       0.06584073       0.86422550 </v>
    <v>       0.84150945       0.70573501       0.63989422 </v>
    <v>       0.56584073       0.20161523       0.86010572 </v>
    <v>       0.29838477       0.65849055       0.36422556 </v>
    <v>       0.79426499       0.93415921       0.13577450 </v>
    <v>       0.15849061       0.29426499       0.36010572 </v>
    <v>       0.43415924       0.79838477       0.13989422 </v>
    <v>       0.37500000       0.12500000       0.25000000 </v>
    <v>       0.62500000       0.87500000       0.75000000 </v>
    <v>       0.87500000       0.62500000       0.25000000 </v>
    <v>       0.12500000       0.37500000       0.75000000 </v>
   </varray>
  </structure>
  <varray name="forces" >
   <v>       0.00014919      -0.00007838       0.00014498 </v>
   <v>      -0.00000410       0.00016848      -0.00014498 </v>
   <v>       0.00014903      -0.00007811      -0.00014529 </v>
   <v>      -0.00000394       0.00016821       0.00014529 </v>
   <v>      -0.00014919       0.00007838      -0.00014498 </v>
   <v>       0.00000410      -0.00016848       0.00014498 </v>
   <v>      -0.00014903       0.00007811       0.00014529 </v>
   <v>       0.00000394      -0.00016821      -0.00014529 </v>
   <v>       0.00000000       0.00000000       0.00000000 </v>
   <v>       0.00000000       0.00000000       0.00000000 </v>
   <v>       0.00000000      -0.00000000       0.00000000 </v>
   <v>       0.00000000       0.00000000       0.00000000 </v>
  </varray>
  <varray name="stress" >
   <v>       0.02898982       0.00387853       0.00000959 </v>
   <v>       0.00387853       0.02515259      -0.00001543 </v>
   <v>      -0.00000958       0.00001543       0.02274408 </v>
  </varray>
  <energy>
   <i name="e_fr_energy">   -163.18356924 </i>
   <i name="e_wo_entrp">   -163.18356924 </i>
   <i name="e_0_energy">      0.00000000 </i>
  </energy>
  <time name="totalsc"> 3694.02 3697.05</time>
 </calculation>
 <calculation>
  <scstep>
   <time name="dav">  518.26  518.59</time>
   <time name="total">  519.99  520.34</time>
   <energy>
    <i name="alphaZ">    457.83232210 </i>
    <i name="ewald">  -7703.18902132 </i>
    <i name="hartreedc">  -2426.12287414 </i>
    <i name="XCdc">    168.67860264 </i>
    <i name="pawpsdc">  13705.84274861 </i>
    <i name="pawaedc"> -13584.35793452 </i>
    <i name="eentropy">      0.00000000 </i>
    <i name="bandstr">  -1475.60384917 </i>
    <i name="atom">   9926.69705820 </i>
    <i name="e_fr_energy">   -163.18356964 </i>
    <i name="e_wo_entrp">   -163.18356964 </i>
    <i name="e_0_energy">   -163.18356964 </i>
   </energy>
  </scstep>
  <scstep>
   <time name="dav">  467.61  467.91</time>
   <time name="total">  469.37  469.66</time>
   <energy>
    <i name="e_fr_energy">   -163.18356968 </i>
    <i name="e_wo_entrp">   -163.18356968 </i>
    <i name="e_0_energy">   -163.18356968 </i>
   </energy>
  </scstep>
  <scstep>
   <time name="dav">  550.62  550.97</time>
   <time name="total">  552.39  552.74</time>
   <energy>
    <i name="e_fr_energy">   -163.18356958 </i>
    <i name="e_wo_entrp">   -163.18356958 </i>
    <i name="e_0_energy">   -163.18356958 </i>
   </energy>
  </scstep>
  <scstep>
   <time name="dav">  478.58  478.88</time>
   <time name="total">  480.35  480.65</time>
   <energy>
    <i name="e_fr_energy">   -163.18356956 </i>
    <i name="e_wo_entrp">   -163.18356956 </i>
    <i name="e_0_energy">   -163.18356956 </i>
   </energy>
  </scstep>
  <scstep>
   <time name="dav">  298.82  299.01</time>
   <time name="total">  299.68  299.87</time>
   <energy>
    <i name="alphaZ">    457.83232210 </i>
    <i name="ewald">  -7703.18902132 </i>
    <i name="hartreedc">  -2426.16868711 </i>
    <i name="XCdc">    168.67966049 </i>
    <i name="pawpsdc">  13705.21939622 </i>
    <i name="pawaedc"> -13583.73345894 </i>
    <i name="eentropy">      0.00000000 </i>
    <i name="bandstr">  -1475.56447753 </i>
    <i name="atom">   9926.69705820 </i>
    <i name="e_fr_energy">   -163.18356955 </i>
    <i name="e_wo_entrp">   -163.18356955 </i>
    <i name="e_0_energy">   -163.18356955 </i>
   </energy>
  </scstep>
  <structure>
   <crystal>
    <varray name="basis" >
     <v>       6.72523316      -0.02232269       0.00000076 </v>
     <v>       2.96190995       6.03790931      -0.00000080 </v>
     <v>      -4.84357160      -3.00779242       3.56682750 </v>
    </varray>
    <i name="volume">    145.07166837 </i>
    <varray name="rec_basis" >
     <v>       0.14845199      -0.07282344       0.14018062 </v>
     <v>       0.00054882       0.16535103       0.14018055 </v>
     <v>      -0.00000003       0.00000005       0.28036119 </v>
    </varray>
   </crystal>
   <varray name="positions" >
    <v>       0.70161761       0.34150985       0.63577647 </v>
    <v>       0.20573334       0.06584108       0.86422347 </v>
    <v>       0.84150985       0.70573337       0.63989223 </v>
    <v>       0.56584108       0.20161761       0.86010771 </v>
    <v>       0.29838239       0.65849015       0.36422353 </v>
    <v>       0.79426663       0.93415886       0.13577653 </v>
    <v>       0.15849021       0.29426663       0.36010771 </v>
    <v>       0.43415889       0.79838239       0.13989223 </v>
    <v>       0.37500000       0.12500000       0.25000000 </v>
    <v>       0.62500000       0.87500000       0.75000000 </v>
    <v>       0.87500000       0.62500000       0.25000000 </v>
    <v>       0.12500000       0.37500000       0.75000000 </v>
   </varray>
  </structure>
  <varray name="forces" >
   <v>      -0.00038742      -0.00019129      -0.00050439 </v>
   <v>      -0.00034324      -0.00026244       0.00050439 </v>
   <v>      -0.00063142       0.00020162       0.00004187 </v>
   <v>      -0.00009925      -0.00065536      -0.00004187 </v>
   <v>       0.00038742       0.00019129       0.00050439 </v>
   <v>       0.00034324       0.00026244      -0.00050439 </v>
   <v>       0.00063142      -0.00020162      -0.00004187 </v>
   <v>       0.00009925       0.00065536       0.00004187 </v>
   <v>       0.00000000       0.00000000      -0.00000000 </v>
   <v>      -0.00000000       0.00000000       0.00000000 </v>
   <v>      -0.00000000       0.00000000       0.00000000 </v>
   <v>      -0.00000000       0.00000000       0.00000000 </v>
  </varray>
  <varray name="stress" >
   <v>      -0.01182576      -0.10091599       0.00000911 </v>
   <v>      -0.10091599       0.08801587      -0.00001463 </v>
   <v>      -0.00000908       0.00001465       0.15068341 </v>
  </varray>
  <energy>
   <i name="e_fr_energy">   -163.18356955 </i>
   <i name="e_wo_entrp">   -163.18356955 </i>
   <i name="e_0_energy">      0.00000000 </i>
  </energy>
  <time name="totalsc"> 2709.59 2711.85</time>
 </calculation>
 <calculation>
  <scstep>
   <time name="dav">  535.57  535.91</time>
   <time name="total">  537.31  537.66</time>
   <energy>
    <i name="alphaZ">    457.84117903 </i>
    <i name="ewald">  -7703.22826867 </i>
    <i name="hartreedc">  -2426.19211059 </i>
    <i name="XCdc">    168.68083217 </i>
    <i name="pawpsdc">  13705.19734981 </i>
    <i name="pawaedc"> -13583.71154773 </i>
    <i name="eentropy">      0.00000000 </i>
    <i name="bandstr">  -1475.51639156 </i>
    <i name="atom">   9926.69705820 </i>
    <i name="e_fr_energy">   -163.18356938 </i>
    <i name="e_wo_entrp">   -163.18356938 </i>
    <i name="e_0_energy">   -163.18356938 </i>
   </energy>
  </scstep>
  <scstep>
   <time name="dav">  446.57  446.85</time>
   <time name="total">  448.32  448.61</time>
   <energy>
    <i name="e_fr_energy">   -163.18356938 </i>
    <i name="e_wo_entrp">   -163.18356938 </i>
    <i name="e_0_energy">   -163.18356938 </i>
   </energy>
  </scstep>
  <scstep>
   <time name="dav">  533.87  534.21</time>
   <time name="total">  535.63  535.97</time>
   <energy>
    <i name="e_fr_energy">   -163.18356930 </i>
    <i name="e_wo_entrp">   -163.18356930 </i>
    <i name="e_0_energy">   -163.18356930 </i>
   </energy>
  </scstep>
  <scstep>
   <time name="dav">  435.84  436.11</time>
   <time name="total">  436.68  437.08</time>
   <energy>
    <i name="alphaZ">    457.84117903 </i>
    <i name="ewald">  -7703.22826867 </i>
    <i name="hartreedc">  -2426.15598422 </i>
    <i name="XCdc">    168.67998695 </i>
    <i name="pawpsdc">  13705.66232935 </i>
    <i name="pawaedc"> -13584.17776495 </i>
    <i name="eentropy">      0.00000000 </i>
    <i name="bandstr">  -1475.54642425 </i>
    <i name="atom">   9926.69705820 </i>
    <i name="e_fr_energy">   -163.18356930 </i>
    <i name="e_wo_entrp">   -163.18356930 </i>
    <i name="e_0_energy">   -163.18356930 </i>
   </energy>
  </scstep>
  <structure>
   <crystal>
    <varray name="basis" >
     <v>       6.72518874      -0.02232377       0.00000077 </v>
     <v>       2.96188928       6.03786997      -0.00000081 </v>
     <v>      -4.84353905      -3.00777220       3.56680498 </v>
    </varray>
    <i name="volume">    145.06886196 </i>
    <varray name="rec_basis" >
     <v>       0.14845296      -0.07282388       0.14018150 </v>
     <v>       0.00054886       0.16535210       0.14018144 </v>
     <v>      -0.00000003       0.00000005       0.28036296 </v>
    </varray>
   </crystal>
   <varray name="positions" >
    <v>       0.70161613       0.34150828       0.63577460 </v>
    <v>       0.20573365       0.06584147       0.86422534 </v>
    <v>       0.84150828       0.70573368       0.63989215 </v>
    <v>       0.56584147       0.20161613       0.86010779 </v>
    <v>       0.29838387       0.65849172       0.36422540 </v>
    <v>       0.79426632       0.93415847       0.13577466 </v>
    <v>       0.15849178       0.29426632       0.36010779 </v>
    <v>       0.43415850       0.79838387       0.13989215 </v>
    <v>       0.37500000       0.12500000       0.25000000 </v>
    <v>       0.62500000       0.87500000       0.75000000 </v>
    <v>       0.87500000       0.62500000       0.25000000 </v>
    <v>       0.12500000       0.37500000       0.75000000 </v>
   </varray>
  </structure>
  <varray name="forces" >
   <v>       0.00003086      -0.00007064       0.00000179 </v>
   <v>      -0.00004963       0.00005898      -0.00000179 </v>
   <v>      -0.00000844      -0.00000735      -0.00007629 </v>
   <v>      -0.00001033      -0.00000431       0.00007629 </v>
   <v>      -0.00003086       0.00007064      -0.00000179 </v>
   <v>       0.00004963      -0.00005898       0.00000179 </v>
   <v>       0.00000844       0.00000735       0.00007629 </v>
   <v>       0.00001033       0.00000431      -0.00007629 </v>
   <v>       0.00000000      -0.00000000      -0.00000000 </v>
   <v>      -0.00000000       0.00000000      -0.00000000 </v>
   <v>      -0.00000000      -0.00000000       0.00000000 </v>
   <v>      -0.00000000      -0.00000000      -0.00000000 </v>
  </varray>
  <varray name="stress" >
   <v>      -0.01735242       0.00148913       0.00000952 </v>
   <v>       0.00148913      -0.01882569      -0.00001534 </v>
   <v>      -0.00000952       0.00001533      -0.01975043 </v>
  </varray>
  <energy>
   <i name="e_fr_energy">   -163.18356930 </i>
   <i name="e_wo_entrp">   -163.18356930 </i>
   <i name="e_0_energy">      0.00000000 </i>
  </energy>
  <time name="totalsc"> 2347.49 2349.72</time>
 </calculation>
 <calculation>
  <scstep>
   <time name="dav">  516.98  517.30</time>
   <time name="total">  518.71  519.05</time>
   <energy>
    <i name="alphaZ">    457.84914924 </i>
    <i name="ewald">  -7703.27314288 </i>
    <i name="hartreedc">  -2426.16922402 </i>
    <i name="XCdc">    168.68100694 </i>
    <i name="pawpsdc">  13705.71339046 </i>
    <i name="pawaedc"> -13584.22874679 </i>
    <i name="eentropy">      0.00000000 </i>
    <i name="bandstr">  -1475.50247502 </i>
    <i name="atom">   9926.69705820 </i>
    <i name="e_fr_energy">   -163.18356928 </i>
    <i name="e_wo_entrp">   -163.18356928 </i>
    <i name="e_0_energy">   -163.18356928 </i>
   </energy>
  </scstep>
  <scstep>
   <time name="dav">  503.66  503.97</time>
   <time name="total">  505.40  505.72</time>
   <energy>
    <i name="e_fr_energy">   -163.18356923 </i>
    <i name="e_wo_entrp">   -163.18356923 </i>
    <i name="e_0_energy">   -163.18356923 </i>
   </energy>
  </scstep>
  <scstep>
   <time name="dav">  516.93  517.26</time>
   <time name="total">  518.68  519.01</time>
   <energy>
    <i name="e_fr_energy">   -163.18356917 </i>
    <i name="e_wo_entrp">   -163.18356917 </i>
    <i name="e_0_energy">   -163.18356917 </i>
   </energy>
  </scstep>
  <scstep>
   <time name="dav">  492.73  493.03</time>
   <time name="total">  493.60  493.91</time>
   <energy>
    <i name="alphaZ">    457.84914924 </i>
    <i name="ewald">  -7703.27314288 </i>
    <i name="hartreedc">  -2426.13581883 </i>
    <i name="XCdc">    168.68024654 </i>
    <i name="pawpsdc">  13706.01617096 </i>
    <i name="pawaedc"> -13584.53220830 </i>
    <i name="eentropy">      0.00000000 </i>
    <i name="bandstr">  -1475.53048742 </i>
    <i name="atom">   9926.69705820 </i>
    <i name="e_fr_energy">   -163.18356917 </i>
    <i name="e_wo_entrp">   -163.18356917 </i>
    <i name="e_0_energy">   -163.18356917 </i>
   </energy>
  </scstep>
  <structure>
   <crystal>
    <varray name="basis" >
     <v>       6.72514766      -0.02232602       0.00000079 </v>
     <v>       2.96186905       6.03783415      -0.00000083 </v>
     <v>      -4.84350842      -3.00775315       3.56678522 </v>
    </varray>
    <i name="volume">    145.06633661 </i>
    <varray name="rec_basis" >
     <v>       0.14845384      -0.07282425       0.14018228 </v>
     <v>       0.00054892       0.16535305       0.14018221 </v>
     <v>      -0.00000003       0.00000005       0.28036451 </v>
    </varray>
   </crystal>
   <varray name="positions" >
    <v>       0.70161650       0.34150766       0.63577450 </v>
    <v>       0.20573313       0.06584194       0.86422544 </v>
    <v>       0.84150766       0.70573315       0.63989116 </v>
    <v>       0.56584194       0.20161650       0.86010879 </v>
    <v>       0.29838350       0.65849234       0.36422550 </v>
    <v>       0.79426685       0.93415800       0.13577456 </v>
    <v>       0.15849240       0.29426685       0.36010879 </v>
    <v>       0.43415803       0.79838350       0.13989116 </v>
    <v>       0.37500000       0.12500000       0.25000000 </v>
    <v>       0.62500000       0.87500000       0.75000000 </v>
    <v>       0.87500000       0.62500000       0.25000000 </v>
    <v>       0.12500000       0.37500000       0.75000000 </v>
   </varray>
  </structure>
  <varray name="forces" >
   <v>       0.00024790      -0.00001519       0.00026732 </v>
   <v>       0.00009630       0.00022894      -0.00026732 </v>
   <v>       0.00031312      -0.00012022      -0.00014368 </v>
   <v>       0.00003108       0.00033397       0.00014368 </v>
   <v>      -0.00024790       0.00001519      -0.00026732 </v>
   <v>      -0.00009630      -0.00022894       0.00026732 </v>
   <v>      -0.00031312       0.00012022       0.00014368 </v>
   <v>      -0.00003108      -0.00033397      -0.00014368 </v>
   <v>      -0.00000000      -0.00000000       0.00000000 </v>
   <v>       0.00000000      -0.00000000       0.00000000 </v>
   <v>       0.00000000      -0.00000000      -0.00000000 </v>
   <v>       0.00000000      -0.00000000      -0.00000000 </v>
  </varray>
  <varray name="stress" >
   <v>       0.01747354       0.00064571       0.00000928 </v>
   <v>       0.00064571       0.01683471      -0.00001493 </v>
   <v>      -0.00000927       0.00001494       0.01643374 </v>
  </varray>
  <energy>
   <i name="e_fr_energy">   -163.18356917 </i>
   <i name="e_wo_entrp">   -163.18356917 </i>
   <i name="e_0_energy">      0.00000000 </i>
  </energy>
  <time name="totalsc"> 2432.40 2434.46</time>
 </calculation>
 <calculation>
  <scstep>
   <time name="dav">  502.65  502.96</time>
   <time name="total">  504.39  504.72</time>
   <energy>
    <i name="alphaZ">    457.84488820 </i>
    <i name="ewald">  -7703.25810894 </i>
    <i name="hartreedc">  -2426.12110793 </i>
    <i name="XCdc">    168.67965461 </i>
    <i name="pawpsdc">  13706.03662698 </i>
    <i name="pawaedc"> -13584.55245826 </i>
    <i name="eentropy">      0.00000000 </i>
    <i name="bandstr">  -1475.55388739 </i>
    <i name="atom">   9926.69705820 </i>
    <i name="e_fr_energy">   -163.18356923 </i>
    <i name="e_wo_entrp">   -163.18356923 </i>
    <i name="e_0_energy">   -163.18356923 </i>
   </energy>
  </scstep>
  <scstep>
   <time name="dav">  472.19  472.49</time>
   <time name="total">  473.94  474.24</time>
   <energy>
    <i name="e_fr_energy">   -163.18356929 </i>
    <i name="e_wo_entrp">   -163.18356929 </i>
    <i name="e_0_energy">   -163.18356929 </i>
   </energy>
  </scstep>
  <scstep>
   <time name="dav">  442.44  442.72</time>
   <time name="total">  443.31  443.59</time>
   <energy>
    <i name="alphaZ">    457.84488820 </i>
    <i name="ewald">  -7703.25810894 </i>
    <i name="hartreedc">  -2426.13593361 </i>
    <i name="XCdc">    168.68001371 </i>
    <i name="pawpsdc">  13705.81168954 </i>
    <i name="pawaedc"> -13584.32684519 </i>
    <i name="eentropy">      0.00000000 </i>
    <i name="bandstr">  -1475.54268364 </i>
    <i name="atom">   9926.69705820 </i>
    <i name="e_fr_energy">   -163.18356928 </i>
    <i name="e_wo_entrp">   -163.18356928 </i>
    <i name="e_0_energy">   -163.18356928 </i>
   </energy>
  </scstep>
  <structure>
   <crystal>
    <varray name="basis" >
     <v>       6.72516736      -0.02232744       0.00000080 </v>
     <v>       2.96187651       6.03785243      -0.00000084 </v>
     <v>      -4.84352200      -3.00776157       3.56679682 </v>
    </varray>
    <i name="volume">    145.06768670 </i>
    <varray name="rec_basis" >
     <v>       0.14845339      -0.07282399       0.14018182 </v>
     <v>       0.00054895       0.16535253       0.14018176 </v>
     <v>      -0.00000003       0.00000006       0.28036360 </v>
    </varray>
   </crystal>
   <varray name="positions" >
    <v>       0.70161810       0.34150839       0.63577608 </v>
    <v>       0.20573228       0.06584195       0.86422386 </v>
    <v>       0.84150839       0.70573231       0.63989030 </v>
    <v>       0.56584195       0.20161810       0.86010964 </v>
    <v>       0.29838190       0.65849161       0.36422392 </v>
    <v>       0.79426769       0.93415799       0.13577614 </v>
    <v>       0.15849167       0.29426769       0.36010964 </v>
    <v>       0.43415802       0.79838190       0.13989030 </v>
    <v>       0.37500000       0.12500000       0.25000000 </v>
    <v>       0.62500000       0.87500000       0.75000000 </v>
    <v>       0.87500000       0.62500000       0.25000000 </v>
    <v>       0.12500000       0.37500000       0.75000000 </v>
   </varray>
  </structure>
  <varray name="forces" >
   <v>      -0.00010329      -0.00005911      -0.00017849 </v>
   <v>      -0.00009878      -0.00006637       0.00017849 </v>
   <v>      -0.00019520       0.00008889       0.00000427 </v>
   <v>      -0.00000687      -0.00021438      -0.00000427 </v>
   <v>       0.00010329       0.00005911       0.00017849 </v>
   <v>       0.00009878       0.00006637      -0.00017849 </v>
   <v>       0.00019520      -0.00008889      -0.00000427 </v>
   <v>       0.00000687       0.00021438       0.00000427 </v>
   <v>      -0.00000000      -0.00000000       0.00000000 </v>
   <v>      -0.00000000       0.00000000      -0.00000000 </v>
   <v>       0.00000000       0.00000000       0.00000000 </v>
   <v>      -0.00000000       0.00000000      -0.00000000 </v>
  </varray>
  <varray name="stress" >
   <v>       0.06754870      -0.00043812       0.00000934 </v>
   <v>      -0.00043812       0.06798215      -0.00001503 </v>
   <v>      -0.00000933       0.00001504       0.06825424 </v>
  </varray>
  <energy>
   <i name="e_fr_energy">   -163.18356928 </i>
   <i name="e_wo_entrp">   -163.18356928 </i>
   <i name="e_0_energy">      0.00000000 </i>
  </energy>
  <time name="totalsc"> 1819.23 1820.97</time>
 </calculation>
 <calculation>
  <scstep>
   <time name="dav">  461.52  461.82</time>
   <time name="total">  463.26  463.56</time>
   <energy>
    <i name="alphaZ">    457.84761188 </i>
    <i name="ewald">  -7703.29003896 </i>
    <i name="hartreedc">  -2426.13014719 </i>
    <i name="XCdc">    168.68035262 </i>
    <i name="pawpsdc">  13705.74433480 </i>
    <i name="pawaedc"> -13584.25940370 </i>
    <i name="eentropy">      0.00000000 </i>
    <i name="bandstr">  -1475.52040839 </i>
    <i name="atom">   9926.69705820 </i>
    <i name="e_fr_energy">   -163.18356905 </i>
    <i name="e_wo_entrp">   -163.18356905 </i>
    <i name="e_0_energy">   -163.18356905 </i>
   </energy>
  </scstep>
  <scstep>
   <time name="dav">  501.03  501.35</time>
   <time name="total">  502.79  503.11</time>
   <energy>
    <i name="e_fr_energy">   -163.18356921 </i>
    <i name="e_wo_entrp">   -163.18356921 </i>
    <i name="e_0_energy">   -163.18356921 </i>
   </energy>
  </scstep>
  <scstep>
   <time name="dav">  458.74  459.03</time>
   <time name="total">  460.50  460.79</time>
   <energy>
    <i name="e_fr_energy">   -163.18356919 </i>
    <i name="e_wo_entrp">   -163.18356919 </i>
    <i name="e_0_energy">   -163.18356919 </i>
   </energy>
  </scstep>
  <scstep>
   <time name="dav">  386.07  386.31</time>
   <time name="total">  386.93  387.17</time>
   <energy>
    <i name="alphaZ">    457.84761188 </i>
    <i name="ewald">  -7703.29003896 </i>
    <i name="hartreedc">  -2426.11451822 </i>
    <i name="XCdc">    168.68000857 </i>
    <i name="pawpsdc">  13705.50980542 </i>
    <i name="pawaedc"> -13584.02552598 </i>
    <i name="eentropy">      0.00000000 </i>
    <i name="bandstr">  -1475.53267471 </i>
    <i name="atom">   9926.69705820 </i>
    <i name="e_fr_energy">   -163.18356919 </i>
    <i name="e_wo_entrp">   -163.18356919 </i>
    <i name="e_0_energy">   -163.18356919 </i>
   </energy>
  </scstep>
  <structure>
   <crystal>
    <varray name="basis" >
     <v>       6.72515736      -0.02232353       0.00000081 </v>
     <v>       2.96187558       6.03784174      -0.00000085 </v>
     <v>      -4.84351654      -3.00775817       3.56678822 </v>
    </varray>
    <i name="volume">    145.06682371 </i>
    <varray name="rec_basis" >
     <v>       0.14845366      -0.07282422       0.14018216 </v>
     <v>       0.00054886       0.16535287       0.14018210 </v>
     <v>      -0.00000003       0.00000006       0.28036428 </v>
    </varray>
   </crystal>
   <varray name="positions" >
    <v>       0.70162102       0.34150996       0.63577915 </v>
    <v>       0.20573078       0.06584181       0.86422079 </v>
    <v>       0.84150996       0.70573081       0.63988895 </v>
    <v>       0.56584181       0.20162102       0.86011099 </v>
    <v>       0.29837898       0.65849004       0.36422085 </v>
    <v>       0.79426919       0.93415813       0.13577921 </v>
    <v>       0.15849010       0.29426919       0.36011099 </v>
    <v>       0.43415816       0.79837898       0.13988895 </v>
    <v>       0.37500000       0.12500000       0.25000000 </v>
    <v>       0.62500000       0.87500000       0.75000000 </v>
    <v>       0.87500000       0.62500000       0.25000000 </v>
    <v>       0.12500000       0.37500000       0.75000000 </v>
   </varray>
  </structure>
  <varray name="forces" >
   <v>      -0.00036768      -0.00009006      -0.00052367 </v>
   <v>      -0.00024375      -0.00028963       0.00052367 </v>
   <v>      -0.00058197       0.00025502       0.00011746 </v>
   <v>      -0.00002946      -0.00063471      -0.00011746 </v>
   <v>       0.00036768       0.00009006       0.00052367 </v>
   <v>       0.00024375       0.00028963      -0.00052367 </v>
   <v>       0.00058197      -0.00025502      -0.00011746 </v>
   <v>       0.00002946       0.00063471       0.00011746 </v>
   <v>      -0.00000000       0.00000000      -0.00000000 </v>
   <v>      -0.00000000       0.00000000      -0.00000000 </v>
   <v>      -0.00000000       0.00000000      -0.00000000 </v>
   <v>      -0.00000000       0.00000000      -0.00000000 </v>
  </varray>
  <varray name="stress" >
   <v>       0.00173067       0.00366432       0.00000936 </v>
   <v>       0.00366432      -0.00189464      -0.00001508 </v>
   <v>      -0.00000936       0.00001508      -0.00417014 </v>
  </varray>
  <energy>
   <i name="e_fr_energy">   -163.18356919 </i>
   <i name="e_wo_entrp">   -163.18356919 </i>
   <i name="e_0_energy">      0.00000000 </i>
  </energy>
  <time name="totalsc"> 2213.24 2215.27</time>
 </calculation>
 <calculation>
  <scstep>
   <time name="dav">  445.41  445.69</time>
   <time name="total">  447.15  447.44</time>
   <energy>
    <i name="alphaZ">    457.84674278 </i>
    <i name="ewald">  -7703.24934046 </i>
    <i name="hartreedc">  -2426.14044419 </i>
    <i name="XCdc">    168.68003715 </i>
    <i name="pawpsdc">  13705.44738788 </i>
    <i name="pawaedc"> -13583.96298932 </i>
    <i name="eentropy">      0.00000000 </i>
    <i name="bandstr">  -1475.54698738 </i>
    <i name="atom">   9926.69705820 </i>
    <i name="e_fr_energy">   -163.18356839 </i>
    <i name="e_wo_entrp">   -163.18356839 </i>
    <i name="e_0_energy">   -163.18356839 </i>
   </energy>
  </scstep>
  <scstep>
   <time name="dav">  560.26  560.61</time>
   <time name="total">  562.02  562.37</time>
   <energy>
    <i name="e_fr_energy">   -163.18356925 </i>
    <i name="e_wo_entrp">   -163.18356925 </i>
    <i name="e_0_energy">   -163.18356925 </i>
   </energy>
  </scstep>
  <scstep>
   <time name="dav">  559.28  559.63</time>
   <time name="total">  561.04  561.40</time>
   <energy>
    <i name="e_fr_energy">   -163.18356925 </i>
    <i name="e_wo_entrp">   -163.18356925 </i>
    <i name="e_0_energy">   -163.18356925 </i>
   </energy>
  </scstep>
  <scstep>
   <time name="dav">  440.43  440.71</time>
   <time name="total">  441.29  441.57</time>
   <energy>
    <i name="alphaZ">    457.84674278 </i>
    <i name="ewald">  -7703.24934046 </i>
    <i name="hartreedc">  -2426.15433295 </i>
    <i name="XCdc">    168.68030169 </i>
    <i name="pawpsdc">  13705.99089905 </i>
    <i name="pawaedc"> -13584.50556821 </i>
    <i name="eentropy">      0.00000000 </i>
    <i name="bandstr">  -1475.53610595 </i>
    <i name="atom">   9926.69705820 </i>
    <i name="e_fr_energy">   -163.18356925 </i>
    <i name="e_wo_entrp">   -163.18356925 </i>
    <i name="e_0_energy">   -163.18356925 </i>
   </energy>
  </scstep>
  <structure>
   <crystal>
    <varray name="basis" >
     <v>       6.72516885      -0.02231516       0.00000083 </v>
     <v>       2.96188818       6.03784832      -0.00000088 </v>
     <v>      -4.84352859      -3.00776562       3.56678718 </v>
    </varray>
    <i name="volume">    145.06709908 </i>
    <varray name="rec_basis" >
     <v>       0.14845349      -0.07282437       0.14018220 </v>
     <v>       0.00054865       0.16535279       0.14018214 </v>
     <v>      -0.00000003       0.00000006       0.28036436 </v>
    </varray>
   </crystal>
   <varray name="positions" >
    <v>       0.70161521       0.34150574       0.63577214 </v>
    <v>       0.20573357       0.06584301       0.86422780 </v>
    <v>       0.84150574       0.70573360       0.63989053 </v>
    <v>       0.56584301       0.20161521       0.86010941 </v>
    <v>       0.29838479       0.65849426       0.36422786 </v>
    <v>       0.79426640       0.93415693       0.13577220 </v>
    <v>       0.15849432       0.29426640       0.36010941 </v>
    <v>       0.43415696       0.79838479       0.13989053 </v>
    <v>       0.37500000       0.12500000       0.25000000 </v>
    <v>       0.62500000       0.87500000       0.75000000 </v>
    <v>       0.87500000       0.62500000       0.25000000 </v>
    <v>       0.12500000       0.37500000       0.75000000 </v>
   </varray>
  </structure>
  <varray name="forces" >
   <v>       0.00029681       0.00000895       0.00037715 </v>
   <v>       0.00013962       0.00026208      -0.00037715 </v>
   <v>       0.00041718      -0.00018489      -0.00014898 </v>
   <v>       0.00001925       0.00045591       0.00014898 </v>
   <v>      -0.00029681      -0.00000895      -0.00037715 </v>
   <v>      -0.00013962      -0.00026208       0.00037715 </v>
   <v>      -0.00041718       0.00018489       0.00014898 </v>
   <v>      -0.00001925      -0.00045591      -0.00014898 </v>
   <v>      -0.00000000       0.00000000       0.00000000 </v>
   <v>      -0.00000000       0.00000000      -0.00000000 </v>
   <v>      -0.00000000       0.00000000       0.00000000 </v>
   <v>      -0.00000000       0.00000000       0.00000000 </v>
  </varray>
  <varray name="stress" >
   <v>       0.06655402       0.00402697       0.00000944 </v>
   <v>       0.00402697       0.06256992      -0.00001519 </v>
   <v>      -0.00000943       0.00001520       0.06006925 </v>
  </varray>
  <energy>
   <i name="e_fr_energy">   -163.18356925 </i>
   <i name="e_wo_entrp">   -163.18356925 </i>
   <i name="e_0_energy">      0.00000000 </i>
  </energy>
  <time name="totalsc"> 2407.99 2410.19</time>
 </calculation>
 <calculation>
  <scstep>
   <time name="dav">  537.47  537.81</time>
   <time name="total">  539.21  539.57</time>
   <energy>
    <i name="alphaZ">    457.84449369 </i>
    <i name="ewald">  -7703.23952703 </i>
    <i name="hartreedc">  -2426.14746125 </i>
    <i name="XCdc">    168.67999871 </i>
    <i name="pawpsdc">  13706.10942487 </i>
    <i name="pawaedc"> -13584.62429097 </i>
    <i name="eentropy">      0.00000000 </i>
    <i name="bandstr">  -1475.54875982 </i>
    <i name="atom">   9926.69705820 </i>
    <i name="e_fr_energy">   -163.18356931 </i>
    <i name="e_wo_entrp">   -163.18356931 </i>
    <i name="e_0_energy">   -163.18356931 </i>
   </energy>
  </scstep>
  <scstep>
   <time name="dav">  446.23  446.51</time>
   <time name="total">  447.99  448.27</time>
   <energy>
    <i name="e_fr_energy">   -163.18356932 </i>
    <i name="e_wo_entrp">   -163.18356932 </i>
    <i name="e_0_energy">   -163.18356932 </i>
   </energy>
  </scstep>
  <scstep>
   <time name="dav">  295.06  295.25</time>
   <time name="total">  295.91  296.10</time>
   <energy>
    <i name="alphaZ">    457.84449369 </i>
    <i name="ewald">  -7703.23952703 </i>
    <i name="hartreedc">  -2426.15408406 </i>
    <i name="XCdc">    168.68014902 </i>
    <i name="pawpsdc">  13706.07375913 </i>
    <i name="pawaedc"> -13584.58858412 </i>
    <i name="eentropy">      0.00000000 </i>
    <i name="bandstr">  -1475.54315446 </i>
    <i name="atom">   9926.69705820 </i>
    <i name="e_fr_energy">   -163.18356932 </i>
    <i name="e_wo_entrp">   -163.18356932 </i>
    <i name="e_0_energy">   -163.18356932 </i>
   </energy>
  </scstep>
  <structure>
   <crystal>
    <varray name="basis" >
     <v>       6.72518130      -0.02231353       0.00000084 </v>
     <v>       2.96189516       6.03785876      -0.00000088 </v>
     <v>      -4.84353831      -3.00777166       3.56679236 </v>
    </varray>
    <i name="volume">    145.06781170 </i>
    <varray name="rec_basis" >
     <v>       0.14845323      -0.07282429       0.14018200 </v>
     <v>       0.00054861       0.16535253       0.14018193 </v>
     <v>      -0.00000003       0.00000006       0.28036395 </v>
    </varray>
   </crystal>
   <varray name="positions" >
    <v>       0.70161570       0.34150600       0.63577267 </v>
    <v>       0.20573331       0.06584298       0.86422727 </v>
    <v>       0.84150600       0.70573334       0.63989030 </v>
    <v>       0.56584298       0.20161570       0.86010964 </v>
    <v>       0.29838430       0.65849400       0.36422733 </v>
    <v>       0.79426666       0.93415696       0.13577273 </v>
    <v>       0.15849406       0.29426666       0.36010964 </v>
    <v>       0.43415699       0.79838430       0.13989030 </v>
    <v>       0.37500000       0.12500000       0.25000000 </v>
    <v>       0.62500000       0.87500000       0.75000000 </v>
    <v>       0.87500000       0.62500000       0.25000000 </v>
    <v>       0.12500000       0.37500000       0.75000000 </v>
   </varray>
  </structure>
  <varray name="forces" >
   <v>       0.00028770      -0.00002713       0.00037791 </v>
   <v>       0.00010325       0.00026991      -0.00037791 </v>
   <v>       0.00039484      -0.00019965      -0.00017482 </v>
   <v>      -0.00000389       0.00044243       0.00017482 </v>
   <v>      -0.00028770       0.00002713      -0.00037791 </v>
   <v>      -0.00010325      -0.00026991       0.00037791 </v>
   <v>      -0.00039484       0.00019965       0.00017482 </v>
   <v>       0.00000389      -0.00044243      -0.00017482 </v>
   <v>      -0.00000000       0.00000000      -0.00000000 </v>
   <v>       0.00000000      -0.00000000      -0.00000000 </v>
   <v>      -0.00000000       0.00000000      -0.00000000 </v>
   <v>      -0.00000000      -0.00000000      -0.00000000 </v>
  </varray>
  <varray name="stress" >
   <v>       0.06669699      -0.00042276       0.00000967 </v>
   <v>      -0.00042276       0.06711526      -0.00001555 </v>
   <v>      -0.00000965       0.00001556       0.06737781 </v>
  </varray>
  <energy>
   <i name="e_fr_energy">   -163.18356932 </i>
   <i name="e_wo_entrp">   -163.18356932 </i>
[...]
       <r>   -2.0837    1.0000 </r>
       <r>   -1.7767    1.0000 </r>
       <r>   -1.7447    1.0000 </r>
       <r>   -1.2805    1.0000 </r>
       <r>   -0.8152    1.0000 </r>
       <r>   -0.5159    1.0000 </r>
       <r>   -0.4996    1.0000 </r>
       <r>   -0.3402    1.0000 </r>
       <r>    0.1596    1.0000 </r>
       <r>    0.4134    1.0000 </r>
       <r>    1.7493    1.0000 </r>
       <r>    9.2712    0.0000 </r>
       <r>    9.4567    0.0000 </r>
       <r>    9.5573    0.0000 </r>
       <r>   10.0844    0.0000 </r>
       <r>   10.5509    0.0000 </r>
       <r>   10.8785    0.0000 </r>
       <r>   11.1335    0.0000 </r>
       <r>   11.2916    0.0000 </r>
       <r>   11.4632    0.0000 </r>
       <r>   11.7837    0.0000 </r>
      </set>
      <set comment="kpoint 7">
       <r>  -44.4694    1.0000 </r>
       <r>  -44.4684    1.0000 </r>
       <r>  -44.4661    1.0000 </r>
       <r>  -44.4647    1.0000 </r>
       <r>  -44.3919    1.0000 </r>
       <r>  -44.3854    1.0000 </r>
       <r>  -24.0719    1.0000 </r>
       <r>  -24.0322    1.0000 </r>
       <r>  -23.9804    1.0000 </r>
       <r>  -23.9431    1.0000 </r>
       <r>  -23.9159    1.0000 </r>
       <r>  -23.8848    1.0000 </r>
       <r>  -23.8572    1.0000 </r>
       <r>  -23.8371    1.0000 </r>
       <r>  -23.8323    1.0000 </r>
       <r>  -23.8299    1.0000 </r>
       <r>  -20.5614    1.0000 </r>
       <r>  -20.3271    1.0000 </r>
       <r>  -20.0329    1.0000 </r>
       <r>  -19.7600    1.0000 </r>
       <r>  -19.6711    1.0000 </r>
       <r>  -19.5607    1.0000 </r>
       <r>  -19.3789    1.0000 </r>
       <r>  -19.3434    1.0000 </r>
       <r>   -9.2203    1.0000 </r>
       <r>   -8.8797    1.0000 </r>
       <r>   -5.3986    1.0000 </r>
       <r>   -5.1500    1.0000 </r>
       <r>   -4.8285    1.0000 </r>
       <r>   -4.5466    1.0000 </r>
       <r>   -3.9302    1.0000 </r>
       <r>   -3.6250    1.0000 </r>
       <r>   -3.3409    1.0000 </r>
       <r>   -3.2960    1.0000 </r>
       <r>   -3.1141    1.0000 </r>
       <r>   -3.0316    1.0000 </r>
       <r>   -2.8505    1.0000 </r>
       <r>   -2.6812    1.0000 </r>
       <r>   -2.4939    1.0000 </r>
       <r>   -2.0517    1.0000 </r>
       <r>   -1.8974    1.0000 </r>
       <r>   -1.6388    1.0000 </r>
       <r>   -1.4973    1.0000 </r>
       <r>   -0.7848    1.0000 </r>
       <r>   -0.5731    1.0000 </r>
       <r>   -0.4267    1.0000 </r>
       <r>   -0.3624    1.0000 </r>
       <r>   -0.1381    1.0000 </r>
       <r>    0.9620    1.0000 </r>
       <r>    1.7583    1.0000 </r>
       <r>    8.9976    0.0000 </r>
       <r>    9.7059    0.0000 </r>
       <r>    9.7472    0.0000 </r>
       <r>   10.0489    0.0000 </r>
       <r>   10.5352    0.0000 </r>
       <r>   10.7241    0.0000 </r>
       <r>   10.9331    0.0000 </r>
       <r>   11.2674    0.0000 </r>
       <r>   11.4264    0.0000 </r>
       <r>   11.7415    0.0000 </r>
      </set>
      <set comment="kpoint 8">
       <r>  -44.4675    1.0000 </r>
       <r>  -44.4675    1.0000 </r>
       <r>  -44.4669    1.0000 </r>
       <r>  -44.4669    1.0000 </r>
       <r>  -44.3885    1.0000 </r>
       <r>  -44.3885    1.0000 </r>
       <r>  -24.0689    1.0000 </r>
       <r>  -24.0689    1.0000 </r>
       <r>  -23.9460    1.0000 </r>
       <r>  -23.9460    1.0000 </r>
       <r>  -23.9121    1.0000 </r>
       <r>  -23.9121    1.0000 </r>
       <r>  -23.8436    1.0000 </r>
       <r>  -23.8436    1.0000 </r>
       <r>  -23.8326    1.0000 </r>
       <r>  -23.8326    1.0000 </r>
       <r>  -20.1664    1.0000 </r>
       <r>  -20.1664    1.0000 </r>
       <r>  -19.9200    1.0000 </r>
       <r>  -19.9200    1.0000 </r>
       <r>  -19.7897    1.0000 </r>
       <r>  -19.7897    1.0000 </r>
       <r>  -19.4531    1.0000 </r>
       <r>  -19.4531    1.0000 </r>
       <r>   -8.9980    1.0000 </r>
       <r>   -8.9980    1.0000 </r>
       <r>   -5.1814    1.0000 </r>
       <r>   -5.1814    1.0000 </r>
       <r>   -5.0610    1.0000 </r>
       <r>   -5.0610    1.0000 </r>
       <r>   -3.9469    1.0000 </r>
       <r>   -3.9469    1.0000 </r>
       <r>   -3.0239    1.0000 </r>
       <r>   -3.0239    1.0000 </r>
       <r>   -2.8546    1.0000 </r>
       <r>   -2.8546    1.0000 </r>
       <r>   -2.7145    1.0000 </r>
       <r>   -2.7145    1.0000 </r>
       <r>   -2.2566    1.0000 </r>
       <r>   -2.2566    1.0000 </r>
       <r>   -1.9284    1.0000 </r>
       <r>   -1.9284    1.0000 </r>
       <r>   -1.1867    1.0000 </r>
       <r>   -1.1866    1.0000 </r>
       <r>   -0.5223    1.0000 </r>
       <r>   -0.5223    1.0000 </r>
       <r>   -0.2279    1.0000 </r>
       <r>   -0.2279    1.0000 </r>
       <r>    1.4507    1.0000 </r>
       <r>    1.4507    1.0000 </r>
       <r>    9.7300    0.0000 </r>
       <r>    9.7300    0.0000 </r>
       <r>    9.8305    0.0000 </r>
       <r>    9.8305    0.0000 </r>
       <r>   10.2588    0.0000 </r>
       <r>   10.2588    0.0000 </r>
       <r>   10.8672    0.0000 </r>
       <r>   10.8672    0.0000 </r>
       <r>   11.6605    0.0000 </r>
       <r>   11.6605    0.0000 </r>
      </set>
      <set comment="kpoint 9">
       <r>  -44.4675    1.0000 </r>
       <r>  -44.4674    1.0000 </r>
       <r>  -44.4669    1.0000 </r>
       <r>  -44.4669    1.0000 </r>
       <r>  -44.3886    1.0000 </r>
       <r>  -44.3885    1.0000 </r>
       <r>  -24.0668    1.0000 </r>
       <r>  -24.0668    1.0000 </r>
       <r>  -23.9604    1.0000 </r>
       <r>  -23.9604    1.0000 </r>
       <r>  -23.8933    1.0000 </r>
       <r>  -23.8933    1.0000 </r>
       <r>  -23.8496    1.0000 </r>
       <r>  -23.8495    1.0000 </r>
       <r>  -23.8332    1.0000 </r>
       <r>  -23.8332    1.0000 </r>
       <r>  -20.1196    1.0000 </r>
       <r>  -20.1196    1.0000 </r>
       <r>  -20.0315    1.0000 </r>
       <r>  -20.0315    1.0000 </r>
       <r>  -19.6987    1.0000 </r>
       <r>  -19.6987    1.0000 </r>
       <r>  -19.4794    1.0000 </r>
       <r>  -19.4794    1.0000 </r>
       <r>   -8.9979    1.0000 </r>
       <r>   -8.9979    1.0000 </r>
       <r>   -5.1338    1.0000 </r>
       <r>   -5.1338    1.0000 </r>
       <r>   -5.1135    1.0000 </r>
       <r>   -5.1135    1.0000 </r>
       <r>   -3.8733    1.0000 </r>
       <r>   -3.8733    1.0000 </r>
       <r>   -3.2470    1.0000 </r>
       <r>   -3.2470    1.0000 </r>
       <r>   -2.8721    1.0000 </r>
       <r>   -2.8721    1.0000 </r>
       <r>   -2.5751    1.0000 </r>
       <r>   -2.5751    1.0000 </r>
       <r>   -2.1401    1.0000 </r>
       <r>   -2.1401    1.0000 </r>
       <r>   -2.0243    1.0000 </r>
       <r>   -2.0243    1.0000 </r>
       <r>   -1.0880    1.0000 </r>
       <r>   -1.0880    1.0000 </r>
       <r>   -0.6187    1.0000 </r>
       <r>   -0.6187    1.0000 </r>
       <r>   -0.2189    1.0000 </r>
       <r>   -0.2189    1.0000 </r>
       <r>    1.4488    1.0000 </r>
       <r>    1.4488    1.0000 </r>
       <r>    9.7315    0.0000 </r>
       <r>    9.7316    0.0000 </r>
       <r>    9.7808    0.0000 </r>
       <r>    9.7808    0.0000 </r>
       <r>   10.3012    0.0000 </r>
       <r>   10.3012    0.0000 </r>
       <r>   10.8841    0.0000 </r>
       <r>   10.8841    0.0000 </r>
       <r>   11.7177    0.0000 </r>
       <r>   11.7177    0.0000 </r>
      </set>
      <set comment="kpoint 10">
       <r>  -44.4702    1.0000 </r>
       <r>  -44.4689    1.0000 </r>
       <r>  -44.4658    1.0000 </r>
       <r>  -44.4635    1.0000 </r>
       <r>  -44.3935    1.0000 </r>
       <r>  -44.3842    1.0000 </r>
       <r>  -24.0595    1.0000 </r>
       <r>  -24.0056    1.0000 </r>
       <r>  -23.9838    1.0000 </r>
       <r>  -23.9792    1.0000 </r>
       <r>  -23.8993    1.0000 </r>
       <r>  -23.8714    1.0000 </r>
       <r>  -23.8612    1.0000 </r>
       <r>  -23.8450    1.0000 </r>
       <r>  -23.8325    1.0000 </r>
       <r>  -23.8250    1.0000 </r>
       <r>  -20.7409    1.0000 </r>
       <r>  -20.3542    1.0000 </r>
       <r>  -20.2961    1.0000 </r>
       <r>  -19.6678    1.0000 </r>
       <r>  -19.6218    1.0000 </r>
       <r>  -19.3590    1.0000 </r>
       <r>  -19.3235    1.0000 </r>
       <r>  -19.2490    1.0000 </r>
       <r>   -9.3072    1.0000 </r>
       <r>   -8.8881    1.0000 </r>
       <r>   -5.2936    1.0000 </r>
       <r>   -5.0107    1.0000 </r>
       <r>   -4.6246    1.0000 </r>
       <r>   -4.4549    1.0000 </r>
       <r>   -4.1720    1.0000 </r>
       <r>   -3.7532    1.0000 </r>
       <r>   -3.4895    1.0000 </r>
       <r>   -3.3850    1.0000 </r>
       <r>   -3.3141    1.0000 </r>
       <r>   -2.8837    1.0000 </r>
       <r>   -2.7363    1.0000 </r>
       <r>   -2.5870    1.0000 </r>
       <r>   -2.3995    1.0000 </r>
       <r>   -2.3325    1.0000 </r>
       <r>   -1.8704    1.0000 </r>
       <r>   -1.3967    1.0000 </r>
       <r>   -1.0633    1.0000 </r>
       <r>   -1.0205    1.0000 </r>
       <r>   -0.6997    1.0000 </r>
       <r>   -0.5411    1.0000 </r>
       <r>   -0.3229    1.0000 </r>
       <r>   -0.1425    1.0000 </r>
       <r>    0.6733    1.0000 </r>
       <r>    1.8008    1.0000 </r>
       <r>    8.8616    0.0000 </r>
       <r>    9.4487    0.0000 </r>
       <r>    9.8678    0.0000 </r>
       <r>   10.0072    0.0000 </r>
       <r>   10.3721    0.0000 </r>
       <r>   10.9171    0.0000 </r>
       <r>   11.0246    0.0000 </r>
       <r>   11.4380    0.0000 </r>
       <r>   11.6282    0.0000 </r>
       <r>   11.8045    0.0000 </r>
      </set>
      <set comment="kpoint 11">
       <r>  -44.4706    1.0000 </r>
       <r>  -44.4704    1.0000 </r>
       <r>  -44.4637    1.0000 </r>
       <r>  -44.4635    1.0000 </r>
       <r>  -44.3890    1.0000 </r>
       <r>  -44.3888    1.0000 </r>
       <r>  -24.0567    1.0000 </r>
       <r>  -24.0412    1.0000 </r>
       <r>  -23.9963    1.0000 </r>
       <r>  -23.9865    1.0000 </r>
       <r>  -23.8722    1.0000 </r>
       <r>  -23.8672    1.0000 </r>
       <r>  -23.8537    1.0000 </r>
       <r>  -23.8411    1.0000 </r>
       <r>  -23.8285    1.0000 </r>
       <r>  -23.8245    1.0000 </r>
       <r>  -20.6190    1.0000 </r>
       <r>  -20.5637    1.0000 </r>
       <r>  -20.0444    1.0000 </r>
       <r>  -19.9560    1.0000 </r>
       <r>  -19.4401    1.0000 </r>
       <r>  -19.4118    1.0000 </r>
       <r>  -19.3485    1.0000 </r>
       <r>  -19.2315    1.0000 </r>
       <r>   -9.0960    1.0000 </r>
       <r>   -9.0333    1.0000 </r>
       <r>   -4.9320    1.0000 </r>
       <r>   -4.7866    1.0000 </r>
       <r>   -4.7237    1.0000 </r>
       <r>   -4.6170    1.0000 </r>
       <r>   -3.9688    1.0000 </r>
       <r>   -3.8677    1.0000 </r>
       <r>   -3.7405    1.0000 </r>
       <r>   -3.5686    1.0000 </r>
       <r>   -3.1877    1.0000 </r>
       <r>   -3.1739    1.0000 </r>
       <r>   -2.7791    1.0000 </r>
       <r>   -2.6607    1.0000 </r>
       <r>   -2.6313    1.0000 </r>
       <r>   -2.1680    1.0000 </r>
       <r>   -1.9684    1.0000 </r>
       <r>   -1.6117    1.0000 </r>
       <r>   -1.0366    1.0000 </r>
       <r>   -0.7836    1.0000 </r>
       <r>   -0.6095    1.0000 </r>
       <r>   -0.2503    1.0000 </r>
       <r>   -0.2246    1.0000 </r>
       <r>   -0.1127    1.0000 </r>
       <r>    0.8114    1.0000 </r>
       <r>    1.1449    1.0000 </r>
       <r>    9.2500    0.0000 </r>
       <r>    9.8371    0.0000 </r>
       <r>    9.8501    0.0000 </r>
       <r>   10.1540    0.0000 </r>
       <r>   10.3659    0.0000 </r>
       <r>   10.5476    0.0000 </r>
       <r>   11.0752    0.0000 </r>
       <r>   11.4876    0.0000 </r>
       <r>   11.7412    0.0000 </r>
       <r>   11.9422    0.0000 </r>
      </set>
      <set comment="kpoint 12">
       <r>  -44.4710    1.0000 </r>
       <r>  -44.4707    1.0000 </r>
       <r>  -44.4635    1.0000 </r>
       <r>  -44.4627    1.0000 </r>
       <r>  -44.3924    1.0000 </r>
       <r>  -44.3859    1.0000 </r>
       <r>  -24.0488    1.0000 </r>
       <r>  -24.0300    1.0000 </r>
       <r>  -24.0091    1.0000 </r>
       <r>  -23.9866    1.0000 </r>
       <r>  -23.8749    1.0000 </r>
       <r>  -23.8661    1.0000 </r>
       <r>  -23.8498    1.0000 </r>
       <r>  -23.8417    1.0000 </r>
       <r>  -23.8276    1.0000 </r>
       <r>  -23.8215    1.0000 </r>
       <r>  -20.9676    1.0000 </r>
       <r>  -20.5210    1.0000 </r>
       <r>  -20.0808    1.0000 </r>
       <r>  -19.7215    1.0000 </r>
       <r>  -19.4670    1.0000 </r>
       <r>  -19.3429    1.0000 </r>
       <r>  -19.2591    1.0000 </r>
       <r>  -19.2145    1.0000 </r>
       <r>   -9.2542    1.0000 </r>
       <r>   -8.9147    1.0000 </r>
       <r>   -5.1434    1.0000 </r>
       <r>   -4.8109    1.0000 </r>
       <r>   -4.6175    1.0000 </r>
       <r>   -4.3790    1.0000 </r>
       <r>   -3.9682    1.0000 </r>
       <r>   -3.8379    1.0000 </r>
       <r>   -3.8166    1.0000 </r>
       <r>   -3.4123    1.0000 </r>
       <r>   -3.3585    1.0000 </r>
       <r>   -3.0384    1.0000 </r>
       <r>   -2.9046    1.0000 </r>
       <r>   -2.6013    1.0000 </r>
       <r>   -2.3674    1.0000 </r>
       <r>   -2.2628    1.0000 </r>
       <r>   -2.1300    1.0000 </r>
       <r>   -1.8494    1.0000 </r>
       <r>   -1.1606    1.0000 </r>
       <r>   -0.7277    1.0000 </r>
       <r>   -0.4675    1.0000 </r>
       <r>   -0.2861    1.0000 </r>
       <r>   -0.1263    1.0000 </r>
       <r>   -0.0241    1.0000 </r>
       <r>    0.6801    1.0000 </r>
       <r>    0.9179    1.0000 </r>
       <r>    9.4090    0.0000 </r>
       <r>    9.6202    0.0000 </r>
       <r>    9.8788    0.0000 </r>
       <r>   10.2447    0.0000 </r>
       <r>   10.6277    0.0000 </r>
       <r>   10.7617    0.0000 </r>
       <r>   11.0439    0.0000 </r>
       <r>   11.4389    0.0000 </r>
       <r>   11.8181    0.0000 </r>
       <r>   11.9965    0.0000 </r>
      </set>
      <set comment="kpoint 13">
       <r>  -44.4704    1.0000 </r>
       <r>  -44.4704    1.0000 </r>
       <r>  -44.4632    1.0000 </r>
       <r>  -44.4632    1.0000 </r>
       <r>  -44.3960    1.0000 </r>
       <r>  -44.3830    1.0000 </r>
       <r>  -24.0558    1.0000 </r>
       <r>  -24.0006    1.0000 </r>
       <r>  -24.0006    1.0000 </r>
       <r>  -23.9882    1.0000 </r>
       <r>  -23.8860    1.0000 </r>
       <r>  -23.8621    1.0000 </r>
       <r>  -23.8621    1.0000 </r>
       <r>  -23.8494    1.0000 </r>
       <r>  -23.8367    1.0000 </r>
       <r>  -23.8199    1.0000 </r>
       <r>  -21.3303    1.0000 </r>
       <r>  -20.4065    1.0000 </r>
       <r>  -19.7158    1.0000 </r>
       <r>  -19.7158    1.0000 </r>
       <r>  -19.4570    1.0000 </r>
       <r>  -19.3309    1.0000 </r>
       <r>  -19.2699    1.0000 </r>
       <r>  -19.2699    1.0000 </r>
       <r>   -9.4599    1.0000 </r>
       <r>   -8.7000    1.0000 </r>
       <r>   -5.3366    1.0000 </r>
       <r>   -4.9185    1.0000 </r>
       <r>   -4.9185    1.0000 </r>
       <r>   -4.6711    1.0000 </r>
       <r>   -4.2362    1.0000 </r>
       <r>   -3.5252    1.0000 </r>
       <r>   -3.5252    1.0000 </r>
       <r>   -3.3343    1.0000 </r>
       <r>   -2.9780    1.0000 </r>
       <r>   -2.9700    1.0000 </r>
       <r>   -2.7482    1.0000 </r>
       <r>   -2.7482    1.0000 </r>
       <r>   -2.1960    1.0000 </r>
       <r>   -2.1415    1.0000 </r>
       <r>   -2.1415    1.0000 </r>
       <r>   -1.9841    1.0000 </r>
       <r>   -1.3514    1.0000 </r>
       <r>   -0.5156    1.0000 </r>
       <r>   -0.5156    1.0000 </r>
       <r>   -0.1990    1.0000 </r>
       <r>   -0.0421    1.0000 </r>
       <r>   -0.0421    1.0000 </r>
       <r>    0.3795    1.0000 </r>
       <r>    0.7429    1.0000 </r>
       <r>    9.3571    0.0000 </r>
       <r>    9.8575    0.0000 </r>
       <r>   10.1432    0.0000 </r>
       <r>   10.5085    0.0000 </r>
       <r>   10.5085    0.0000 </r>
       <r>   10.5940    0.0000 </r>
       <r>   11.4585    0.0000 </r>
       <r>   11.7179    0.0000 </r>
       <r>   11.7179    0.0000 </r>
       <r>   11.7357    0.0000 </r>
      </set>
      <set comment="kpoint 14">
       <r>  -44.4717    1.0000 </r>
       <r>  -44.4717    1.0000 </r>
       <r>  -44.4619    1.0000 </r>
       <r>  -44.4619    1.0000 </r>
       <r>  -44.3895    1.0000 </r>
       <r>  -44.3895    1.0000 </r>
       <r>  -24.0306    1.0000 </r>
       <r>  -24.0306    1.0000 </r>
       <r>  -24.0264    1.0000 </r>
       <r>  -24.0264    1.0000 </r>
       <r>  -23.8622    1.0000 </r>
       <r>  -23.8622    1.0000 </r>
       <r>  -23.8321    1.0000 </r>
       <r>  -23.8321    1.0000 </r>
       <r>  -23.8230    1.0000 </r>
       <r>  -23.8230    1.0000 </r>
       <r>  -20.9269    1.0000 </r>
       <r>  -20.9269    1.0000 </r>
       <r>  -19.7840    1.0000 </r>
       <r>  -19.7840    1.0000 </r>
       <r>  -19.3554    1.0000 </r>
       <r>  -19.3554    1.0000 </r>
       <r>  -19.2015    1.0000 </r>
       <r>  -19.2015    1.0000 </r>
       <r>   -9.0770    1.0000 </r>
       <r>   -9.0769    1.0000 </r>
       <r>   -4.8853    1.0000 </r>
       <r>   -4.8853    1.0000 </r>
       <r>   -4.4323    1.0000 </r>
       <r>   -4.4323    1.0000 </r>
       <r>   -3.9366    1.0000 </r>
       <r>   -3.9366    1.0000 </r>
       <r>   -3.5458    1.0000 </r>
       <r>   -3.5458    1.0000 </r>
       <r>   -3.1185    1.0000 </r>
       <r>   -3.1185    1.0000 </r>
       <r>   -2.9399    1.0000 </r>
       <r>   -2.9399    1.0000 </r>
       <r>   -2.5399    1.0000 </r>
       <r>   -2.5399    1.0000 </r>
       <r>   -2.2114    1.0000 </r>
       <r>   -2.2114    1.0000 </r>
       <r>   -0.6547    1.0000 </r>
       <r>   -0.6547    1.0000 </r>
       <r>   -0.1496    1.0000 </r>
       <r>   -0.1496    1.0000 </r>
       <r>   -0.0639    1.0000 </r>
       <r>   -0.0639    1.0000 </r>
       <r>    0.3553    1.0000 </r>
       <r>    0.3553    1.0000 </r>
       <r>   10.0034    0.0000 </r>
       <r>   10.0035    0.0000 </r>
       <r>   10.0506    0.0000 </r>
       <r>   10.0506    0.0000 </r>
       <r>   10.2409    0.0000 </r>
       <r>   10.2409    0.0000 </r>
       <r>   11.9715    0.0000 </r>
       <r>   11.9715    0.0000 </r>
       <r>   12.1352    0.0000 </r>
       <r>   12.1352    0.0000 </r>
      </set>
     </set>
    </set>
   </array>
  </eigenvalues>
  <separator name="orbital magnetization" >
   <v name="MAGDIPOLOUT">      0.00000000      0.00000000      0.00000000</v>
  </separator>
 </calculation>
 <structure name="finalpos" >
  <crystal>
   <varray name="basis" >
    <v>       6.72519705      -0.02232777       0.00000110 </v>
    <v>       2.96188938       6.03787919      -0.00000114 </v>
    <v>      -4.84354343      -3.00777453       3.56681277 </v>
   </varray>
   <i name="volume">    145.06962103 </i>
   <varray name="rec_basis" >
    <v>       0.14845273      -0.07282365       0.14018121 </v>
    <v>       0.00054895       0.16535181       0.14018112 </v>
    <v>      -0.00000005       0.00000008       0.28036235 </v>
   </varray>
  </crystal>
  <varray name="positions" >
   <v>       0.70161814       0.34150406       0.63577347 </v>
   <v>       0.20573057       0.06584461       0.86422647 </v>
   <v>       0.84150406       0.70573059       0.63988592 </v>
   <v>       0.56584461       0.20161814       0.86011402 </v>
   <v>       0.29838186       0.65849594       0.36422653 </v>
   <v>       0.79426941       0.93415533       0.13577353 </v>
   <v>       0.15849600       0.29426941       0.36011402 </v>
   <v>       0.43415536       0.79838186       0.13988592 </v>
   <v>       0.37500000       0.12500000       0.25000000 </v>
   <v>       0.62500000       0.87500000       0.75000000 </v>
   <v>       0.87500000       0.62500000       0.25000000 </v>
   <v>       0.12500000       0.37500000       0.75000000 </v>
  </varray>
 </structure>
</modeling>
