ZnO_Bulk                                
           1
     6.725129   -0.022352    0.000001
     2.961838    6.037829   -0.000001
    -4.843484   -3.007738    3.566797
   O    V    Bi
   8   2   2
Direct configuration=     1
   0.70161741  0.34151254  0.63577791
   0.20573460  0.06583943  0.86422203
   0.84151254  0.70573463  0.63989514
   0.56583943  0.20161741  0.86010480
   0.29838259  0.65848746  0.36422209
   0.79426537  0.93416051  0.13577797
   0.15848752  0.29426537  0.36010480
   0.43416054  0.79838259  0.13989514
   0.37500000  0.12500000  0.25000000
   0.62500000  0.87500000  0.75000000
   0.87500000  0.62500000  0.25000000
   0.12500000  0.37500000  0.75000000
ZnO_Bulk                                
           1
     6.725213   -0.022339    0.000001
     2.961886    6.037898   -0.000001
    -4.843549   -3.007779    3.566831
   O    V    Bi
   8   2   2
Direct configuration=     2
   0.70161475  0.34150973  0.63577405
   0.20573565  0.06584064  0.86422589
   0.84150973  0.70573568  0.63989498
   0.56584064  0.20161475  0.86010496
   0.29838525  0.65849027  0.36422595
   0.79426432  0.93415930  0.13577411
   0.15849033  0.29426432  0.36010496
   0.43415933  0.79838525  0.13989498
   0.37500000  0.12500000  0.25000000
   0.62500000  0.87500000  0.75000000
   0.87500000  0.62500000  0.25000000
   0.12500000  0.37500000  0.75000000
ZnO_Bulk                                
           1
     6.725210   -0.022380    0.000001
     2.961848    6.037914   -0.000001
    -4.843529   -3.007766    3.566864
   O    V    Bi
   8   2   2
Direct configuration=     3
   0.70161473  0.34150940  0.63577390
   0.20573547  0.06584077  0.86422604
   0.84150940  0.70573550  0.63989467
   0.56584077  0.20161473  0.86010527
   0.29838527  0.65849060  0.36422610
   0.79426450  0.93415917  0.13577396
   0.15849066  0.29426450  0.36010527
   0.43415920  0.79838527  0.13989467
   0.37500000  0.12500000  0.25000000
   0.62500000  0.87500000  0.75000000
   0.87500000  0.62500000  0.25000000
   0.12500000  0.37500000  0.75000000
ZnO_Bulk                                
           1
     6.725164   -0.022339    0.000001
     2.961865    6.037855   -0.000001
    -4.843515   -3.007757    3.566805
   O    V    Bi
   8   2   2
Direct configuration=     4
   0.70161523  0.34150945  0.63577444
   0.20573498  0.06584073  0.86422550
   0.84150945  0.70573501  0.63989422
   0.56584073  0.20161523  0.86010572
   0.29838477  0.65849055  0.36422556
   0.79426499  0.93415921  0.13577450
   0.15849061  0.29426499  0.36010572
   0.43415924  0.79838477  0.13989422
   0.37500000  0.12500000  0.25000000
   0.62500000  0.87500000  0.75000000
   0.87500000  0.62500000  0.25000000
   0.12500000  0.37500000  0.75000000
ZnO_Bulk                                
           1
     6.725233   -0.022323    0.000001
     2.961910    6.037909   -0.000001
    -4.843572   -3.007792    3.566827
   O    V    Bi
   8   2   2
Direct configuration=     5
   0.70161761  0.34150985  0.63577647
   0.20573334  0.06584108  0.86422347
   0.84150985  0.70573337  0.63989223
   0.56584108  0.20161761  0.86010771
   0.29838239  0.65849015  0.36422353
   0.79426663  0.93415886  0.13577653
   0.15849021  0.29426663  0.36010771
   0.43415889  0.79838239  0.13989223
   0.37500000  0.12500000  0.25000000
   0.62500000  0.87500000  0.75000000
   0.87500000  0.62500000  0.25000000
   0.12500000  0.37500000  0.75000000
ZnO_Bulk                                
           1
     6.725189   -0.022324    0.000001
     2.961889    6.037870   -0.000001
    -4.843539   -3.007772    3.566805
   O    V    Bi
   8   2   2
Direct configuration=     6
   0.70161613  0.34150828  0.63577460
   0.20573365  0.06584147  0.86422534
   0.84150828  0.70573368  0.63989215
   0.56584147  0.20161613  0.86010779
   0.29838387  0.65849172  0.36422540
   0.79426632  0.93415847  0.13577466
   0.15849178  0.29426632  0.36010779
   0.43415850  0.79838387  0.13989215
   0.37500000  0.12500000  0.25000000
   0.62500000  0.87500000  0.75000000
   0.87500000  0.62500000  0.25000000
   0.12500000  0.37500000  0.75000000
ZnO_Bulk                                
           1
     6.725148   -0.022326    0.000001
     2.961869    6.037834   -0.000001
    -4.843508   -3.007753    3.566785
   O    V    Bi
   8   2   2
Direct configuration=     7
   0.70161650  0.34150766  0.63577450
   0.20573313  0.06584194  0.86422544
   0.84150766  0.70573315  0.63989116
   0.56584194  0.20161650  0.86010879
   0.29838350  0.65849234  0.36422550
   0.79426685  0.93415800  0.13577456
   0.15849240  0.29426685  0.36010879
   0.43415803  0.79838350  0.13989116
   0.37500000  0.12500000  0.25000000
   0.62500000  0.87500000  0.75000000
   0.87500000  0.62500000  0.25000000
   0.12500000  0.37500000  0.75000000
ZnO_Bulk                                
           1
     6.725167   -0.022327    0.000001
     2.961877    6.037852   -0.000001
    -4.843522   -3.007762    3.566797
   O    V    Bi
   8   2   2
Direct configuration=     8
   0.70161810  0.34150839  0.63577608
   0.20573228  0.06584195  0.86422386
   0.84150839  0.70573231  0.63989030
   0.56584195  0.20161810  0.86010964
   0.29838190  0.65849161  0.36422392
   0.79426769  0.93415799  0.13577614
   0.15849167  0.29426769  0.36010964
   0.43415802  0.79838190  0.13989030
   0.37500000  0.12500000  0.25000000
   0.62500000  0.87500000  0.75000000
   0.87500000  0.62500000  0.25000000
   0.12500000  0.37500000  0.75000000
ZnO_Bulk                                
           1
     6.725157   -0.022324    0.000001
     2.961876    6.037842   -0.000001
    -4.843517   -3.007758    3.566788
   O    V    Bi
   8   2   2
Direct configuration=     9
   0.70162102  0.34150996  0.63577915
   0.20573078  0.06584181  0.86422079
   0.84150996  0.70573081  0.63988895
   0.56584181  0.20162102  0.86011099
   0.29837898  0.65849004  0.36422085
   0.79426919  0.93415813  0.13577921
   0.15849010  0.29426919  0.36011099
   0.43415816  0.79837898  0.13988895
   0.37500000  0.12500000  0.25000000
   0.62500000  0.87500000  0.75000000
   0.87500000  0.62500000  0.25000000
   0.12500000  0.37500000  0.75000000
ZnO_Bulk                                
           1
     6.725169   -0.022315    0.000001
     2.961888    6.037848   -0.000001
    -4.843529   -3.007766    3.566787
   O    V    Bi
   8   2   2
Direct configuration=    10
   0.70161521  0.34150574  0.63577214
   0.20573357  0.06584301  0.86422780
   0.84150574  0.70573360  0.63989053
   0.56584301  0.20161521  0.86010941
   0.29838479  0.65849426  0.36422786
   0.79426640  0.93415693  0.13577220
   0.15849432  0.29426640  0.36010941
   0.43415696  0.79838479  0.13989053
   0.37500000  0.12500000  0.25000000
   0.62500000  0.87500000  0.75000000
   0.87500000  0.62500000  0.25000000
   0.12500000  0.37500000  0.75000000
ZnO_Bulk                                
           1
     6.725181   -0.022314    0.000001
     2.961895    6.037859   -0.000001
    -4.843538   -3.007772    3.566792
   O    V    Bi
   8   2   2
Direct configuration=    11
   0.70161570  0.34150600  0.63577267
   0.20573331  0.06584298  0.86422727
   0.84150600  0.70573334  0.63989030
   0.56584298  0.20161570  0.86010964
   0.29838430  0.65849400  0.36422733
   0.79426666  0.93415696  0.13577273
   0.15849406  0.29426666  0.36010964
   0.43415699  0.79838430  0.13989030
   0.37500000  0.12500000  0.25000000
   0.62500000  0.87500000  0.75000000
   0.87500000  0.62500000  0.25000000
   0.12500000  0.37500000  0.75000000
ZnO_Bulk                                
           1
     6.725187   -0.022318    0.000001
     2.961894    6.037866   -0.000001
    -4.843541   -3.007773    3.566799
   O    V    Bi
   8   2   2
Direct configuration=    12
   0.70161595  0.34150600  0.63577291
   0.20573305  0.06584298  0.86422703
   0.84150600  0.70573308  0.63989004
   0.56584298  0.20161595  0.86010990
   0.29838405  0.65849400  0.36422709
   0.79426692  0.93415696  0.13577297
   0.15849406  0.29426692  0.36010990
   0.43415699  0.79838405  0.13989004
   0.37500000  0.12500000  0.25000000
   0.62500000  0.87500000  0.75000000
   0.87500000  0.62500000  0.25000000
   0.12500000  0.37500000  0.75000000
ZnO_Bulk                                
           1
     6.725286   -0.022293    0.000001
     2.961960    6.037943   -0.000001
    -4.843623   -3.007824    3.566830
   O    V    Bi
   8   2   2
Direct configuration=    13
   0.70162664  0.34151008  0.63578452
   0.20572553  0.06584206  0.86421542
   0.84151008  0.70572556  0.63988344
   0.56584206  0.20162664  0.86011650
   0.29837336  0.65848992  0.36421548
   0.79427444  0.93415788  0.13578458
   0.15848998  0.29427444  0.36011650
   0.43415791  0.79837336  0.13988344
   0.37500000  0.12500000  0.25000000
   0.62500000  0.87500000  0.75000000
   0.87500000  0.62500000  0.25000000
   0.12500000  0.37500000  0.75000000
ZnO_Bulk                                
           1
     6.725208   -0.022342    0.000001
     2.961882    6.037895   -0.000001
    -4.843545   -3.007776    3.566830
   O    V    Bi
   8   2   2
Direct configuration=    14
   0.70161998  0.34150582  0.63577687
   0.20572892  0.06584306  0.86422307
   0.84150582  0.70572895  0.63988583
   0.56584306  0.20161998  0.86011411
   0.29838002  0.65849418  0.36422313
   0.79427105  0.93415688  0.13577693
   0.15849424  0.29427105  0.36011411
   0.43415691  0.79838002  0.13988583
   0.37500000  0.12500000  0.25000000
   0.62500000  0.87500000  0.75000000
   0.87500000  0.62500000  0.25000000
   0.12500000  0.37500000  0.75000000
ZnO_Bulk                                
           1
     6.725216   -0.022288    0.000001
     2.961934    6.037878   -0.000001
    -4.843575   -3.007794    3.566789
   O    V    Bi
   8   2   2
Direct configuration=    15
   0.70161951  0.34150537  0.63577659
   0.20572875  0.06584287  0.86422335
   0.84150537  0.70572878  0.63988586
   0.56584287  0.20161951  0.86011408
   0.29838049  0.65849463  0.36422341
   0.79427122  0.93415707  0.13577665
   0.15849469  0.29427122  0.36011408
   0.43415710  0.79838049  0.13988586
   0.37500000  0.12500000  0.25000000
   0.62500000  0.87500000  0.75000000
   0.87500000  0.62500000  0.25000000
   0.12500000  0.37500000  0.75000000
ZnO_Bulk                                
           1
     6.725193   -0.022307    0.000001
     2.961906    6.037867   -0.000001
    -4.843550   -3.007779    3.566793
   O    V    Bi
   8   2   2
Direct configuration=    16
   0.70161829  0.34150471  0.63577480
   0.20572988  0.06584343  0.86422514
   0.84150471  0.70572991  0.63988642
   0.56584343  0.20161829  0.86011352
   0.29838171  0.65849529  0.36422520
   0.79427009  0.93415651  0.13577486
   0.15849535  0.29427009  0.36011352
   0.43415654  0.79838171  0.13988642
   0.37500000  0.12500000  0.25000000
   0.62500000  0.87500000  0.75000000
   0.87500000  0.62500000  0.25000000
   0.12500000  0.37500000  0.75000000
ZnO_Bulk                                
           1
     6.725199   -0.022300    0.000001
     2.961915    6.037869   -0.000001
    -4.843557   -3.007783    3.566791
   O    V    Bi
   8   2   2
Direct configuration=    17
   0.70161860  0.34150492  0.63577502
   0.20572988  0.06584353  0.86422492
   0.84150492  0.70572990  0.63988632
   0.56584353  0.20161860  0.86011362
   0.29838140  0.65849508  0.36422498
   0.79427010  0.93415641  0.13577508
   0.15849514  0.29427010  0.36011362
   0.43415644  0.79838140  0.13988632
   0.37500000  0.12500000  0.25000000
   0.62500000  0.87500000  0.75000000
   0.87500000  0.62500000  0.25000000
   0.12500000  0.37500000  0.75000000
ZnO_Bulk                                
           1
     6.725200   -0.022302    0.000001
     2.961914    6.037871   -0.000001
    -4.843557   -3.007783    3.566793
   O    V    Bi
   8   2   2
Direct configuration=    18
   0.70161822  0.34150468  0.63577462
   0.20573003  0.06584354  0.86422533
   0.84150468  0.70573006  0.63988646
   0.56584354  0.20161822  0.86011348
   0.29838178  0.65849532  0.36422538
   0.79426994  0.93415640  0.13577467
   0.15849538  0.29426994  0.36011348
   0.43415643  0.79838178  0.13988646
   0.37500000  0.12500000  0.25000000
   0.62500000  0.87500000  0.75000000
   0.87500000  0.62500000  0.25000000
   0.12500000  0.37500000  0.75000000
ZnO_Bulk                                
           1
     6.725202   -0.022325    0.000001
     2.961894    6.037882   -0.000001
    -4.843548   -3.007778    3.566813
   O    V    Bi
   8   2   2
Direct configuration=    19
   0.70161757  0.34150432  0.63577397
   0.20573032  0.06584354  0.86422597
   0.84150432  0.70573035  0.63988674
   0.56584354  0.20161757  0.86011320
   0.29838243  0.65849568  0.36422603
   0.79426965  0.93415640  0.13577403
   0.15849574  0.29426965  0.36011320
   0.43415643  0.79838243  0.13988674
   0.37500000  0.12500000  0.25000000
   0.62500000  0.87500000  0.75000000
   0.87500000  0.62500000  0.25000000
   0.12500000  0.37500000  0.75000000
ZnO_Bulk                                
           1
     6.725230   -0.022337    0.000001
     2.961896    6.037913   -0.000001
    -4.843563   -3.007787    3.566838
   O    V    Bi
   8   2   2
Direct configuration=    20
   0.70161495  0.34150259  0.63577112
   0.20573145  0.06584377  0.86422882
   0.84150259  0.70573148  0.63988765
   0.56584377  0.20161495  0.86011229
   0.29838505  0.65849741  0.36422888
   0.79426852  0.93415617  0.13577118
   0.15849747  0.29426852  0.36011229
   0.43415620  0.79838505  0.13988765
   0.37500000  0.12500000  0.25000000
   0.62500000  0.87500000  0.75000000
   0.87500000  0.62500000  0.25000000
   0.12500000  0.37500000  0.75000000
ZnO_Bulk                                
           1
     6.725199   -0.022328    0.000001
     2.961890    6.037881   -0.000001
    -4.843545   -3.007775    3.566814
   O    V    Bi
   8   2   2
Direct configuration=    21
   0.70161749  0.34150420  0.63577320
   0.20573097  0.06584423  0.86422674
   0.84150420  0.70573100  0.63988671
   0.56584423  0.20161749  0.86011323
   0.29838251  0.65849580  0.36422680
   0.79426900  0.93415571  0.13577326
   0.15849586  0.29426900  0.36011323
   0.43415574  0.79838251  0.13988671
   0.37500000  0.12500000  0.25000000
   0.62500000  0.87500000  0.75000000
   0.87500000  0.62500000  0.25000000
   0.12500000  0.37500000  0.75000000
ZnO_Bulk                                
           1
     6.725189   -0.022349    0.000001
     2.961867    6.037881   -0.000001
    -4.843528   -3.007765    3.566826
   O    V    Bi
   8   2   2
Direct configuration=    22
   0.70161878  0.34150487  0.63577447
   0.20573037  0.06584425  0.86422547
   0.84150487  0.70573040  0.63988609
   0.56584425  0.20161878  0.86011385
   0.29838122  0.65849513  0.36422553
   0.79426960  0.93415569  0.13577453
   0.15849519  0.29426960  0.36011385
   0.43415572  0.79838122  0.13988609
   0.37500000  0.12500000  0.25000000
   0.62500000  0.87500000  0.75000000
   0.87500000  0.62500000  0.25000000
   0.12500000  0.37500000  0.75000000
ZnO_Bulk                                
           1
     6.725190   -0.022348    0.000001
     2.961868    6.037882   -0.000001
    -4.843529   -3.007766    3.566827
   O    V    Bi
   8   2   2
Direct configuration=    23
   0.70161846  0.34150467  0.63577401
   0.20573063  0.06584439  0.86422593
   0.84150467  0.70573066  0.63988621
   0.56584439  0.20161846  0.86011373
   0.29838154  0.65849533  0.36422599
   0.79426934  0.93415555  0.13577407
   0.15849539  0.29426934  0.36011373
   0.43415558  0.79838154  0.13988621
   0.37500000  0.12500000  0.25000000
   0.62500000  0.87500000  0.75000000
   0.87500000  0.62500000  0.25000000
   0.12500000  0.37500000  0.75000000
ZnO_Bulk                                
           1
     6.725199   -0.022330    0.000001
     2.961888    6.037882   -0.000001
    -4.843544   -3.007775    3.566815
   O    V    Bi
   8   2   2
Direct configuration=    24
   0.70161820  0.34150451  0.63577362
   0.20573086  0.06584453  0.86422632
   0.84150451  0.70573089  0.63988631
   0.56584453  0.20161820  0.86011364
   0.29838180  0.65849549  0.36422638
   0.79426911  0.93415541  0.13577368
   0.15849555  0.29426911  0.36011364
   0.43415544  0.79838180  0.13988631
   0.37500000  0.12500000  0.25000000
   0.62500000  0.87500000  0.75000000
   0.87500000  0.62500000  0.25000000
   0.12500000  0.37500000  0.75000000
ZnO_Bulk                                
           1
     6.725198   -0.022332    0.000001
     2.961886    6.037882   -0.000001
    -4.843542   -3.007774    3.566817
   O    V    Bi
   8   2   2
Direct configuration=    25
   0.70161855  0.34150475  0.63577444
   0.20573028  0.06584405  0.86422550
   0.84150475  0.70573031  0.63988620
   0.56584405  0.20161855  0.86011374
   0.29838145  0.65849525  0.36422556
   0.79426969  0.93415589  0.13577450
   0.15849531  0.29426969  0.36011374
   0.43415592  0.79838145  0.13988620
   0.37500000  0.12500000  0.25000000
   0.62500000  0.87500000  0.75000000
   0.87500000  0.62500000  0.25000000
   0.12500000  0.37500000  0.75000000
ZnO_Bulk                                
           1
     6.725201   -0.022330    0.000001
     2.961889    6.037884   -0.000001
    -4.843545   -3.007776    3.566817
   O    V    Bi
   8   2   2
Direct configuration=    26
   0.70161843  0.34150467  0.63577425
   0.20573039  0.06584412  0.86422569
   0.84150467  0.70573042  0.63988624
   0.56584412  0.20161843  0.86011370
   0.29838157  0.65849533  0.36422575
   0.79426958  0.93415582  0.13577431
   0.15849539  0.29426958  0.36011370
   0.43415585  0.79838157  0.13988624
   0.37500000  0.12500000  0.25000000
   0.62500000  0.87500000  0.75000000
   0.87500000  0.62500000  0.25000000
   0.12500000  0.37500000  0.75000000
ZnO_Bulk                                
           1
     6.725210   -0.022316    0.000001
     2.961905    6.037885   -0.000001
    -4.843558   -3.007783    3.566810
   O    V    Bi
   8   2   2
Direct configuration=    27
   0.70161851  0.34150473  0.63577485
   0.20572984  0.06584360  0.86422509
   0.84150473  0.70572987  0.63988621
   0.56584360  0.20161851  0.86011373
   0.29838149  0.65849527  0.36422515
   0.79427013  0.93415634  0.13577491
   0.15849533  0.29427013  0.36011373
   0.43415637  0.79838149  0.13988621
   0.37500000  0.12500000  0.25000000
   0.62500000  0.87500000  0.75000000
   0.87500000  0.62500000  0.25000000
   0.12500000  0.37500000  0.75000000
ZnO_Bulk                                
           1
     6.725228   -0.022325    0.000001
     2.961905    6.037906   -0.000001
    -4.843567   -3.007789    3.566827
   O    V    Bi
   8   2   2
Direct configuration=    28
   0.70161746  0.34150402  0.63577320
   0.20573079  0.06584420  0.86422674
   0.84150402  0.70573082  0.63988656
   0.56584420  0.20161746  0.86011338
   0.29838254  0.65849598  0.36422680
   0.79426918  0.93415574  0.13577326
   0.15849604  0.29426918  0.36011338
   0.43415577  0.79838254  0.13988656
   0.37500000  0.12500000  0.25000000
   0.62500000  0.87500000  0.75000000
   0.87500000  0.62500000  0.25000000
   0.12500000  0.37500000  0.75000000
ZnO_Bulk                                
           1
     6.725234   -0.022316    0.000001
     2.961916    6.037907   -0.000001
    -4.843575   -3.007794    3.566822
   O    V    Bi
   8   2   2
Direct configuration=    29
   0.70161689  0.34150363  0.63577255
   0.20573105  0.06584428  0.86422739
   0.84150363  0.70573108  0.63988674
   0.56584428  0.20161689  0.86011320
   0.29838311  0.65849637  0.36422745
   0.79426892  0.93415566  0.13577261
   0.15849643  0.29426892  0.36011320
   0.43415569  0.79838311  0.13988674
   0.37500000  0.12500000  0.25000000
   0.62500000  0.87500000  0.75000000
   0.87500000  0.62500000  0.25000000
   0.12500000  0.37500000  0.75000000
ZnO_Bulk                                
           1
     6.725214   -0.022318    0.000001
     2.961905    6.037890   -0.000001
    -4.843560   -3.007785    3.566813
   O    V    Bi
   8   2   2
Direct configuration=    30
   0.70161653  0.34150340  0.63577212
   0.20573125  0.06584434  0.86422782
   0.84150340  0.70573128  0.63988688
   0.56584434  0.20161653  0.86011306
   0.29838347  0.65849660  0.36422788
   0.79426872  0.93415560  0.13577218
   0.15849666  0.29426872  0.36011306
   0.43415563  0.79838347  0.13988688
   0.37500000  0.12500000  0.25000000
   0.62500000  0.87500000  0.75000000
   0.87500000  0.62500000  0.25000000
   0.12500000  0.37500000  0.75000000
ZnO_Bulk                                
           1
     6.725209   -0.022322    0.000001
     2.961900    6.037888   -0.000001
    -4.843555   -3.007782    3.566815
   O    V    Bi
   8   2   2
Direct configuration=    31
   0.70161972  0.34150528  0.63577557
   0.20572967  0.06584409  0.86422437
   0.84150528  0.70572970  0.63988555
   0.56584409  0.20161972  0.86011439
   0.29838028  0.65849472  0.36422443
   0.79427030  0.93415585  0.13577563
   0.15849478  0.29427030  0.36011439
   0.43415588  0.79838028  0.13988555
   0.37500000  0.12500000  0.25000000
   0.62500000  0.87500000  0.75000000
   0.87500000  0.62500000  0.25000000
   0.12500000  0.37500000  0.75000000
ZnO_Bulk                                
           1
     6.725196   -0.022335    0.000001
     2.961883    6.037881   -0.000001
    -4.843540   -3.007772    3.566818
   O    V    Bi
   8   2   2
Direct configuration=    32
   0.70161863  0.34150455  0.63577428
   0.20573024  0.06584429  0.86422566
   0.84150455  0.70573027  0.63988592
   0.56584429  0.20161863  0.86011402
   0.29838137  0.65849545  0.36422572
   0.79426973  0.93415565  0.13577434
   0.15849551  0.29426973  0.36011402
   0.43415568  0.79838137  0.13988592
   0.37500000  0.12500000  0.25000000
   0.62500000  0.87500000  0.75000000
   0.87500000  0.62500000  0.25000000
   0.12500000  0.37500000  0.75000000
ZnO_Bulk                                
           1
     6.725189   -0.022330    0.000001
     2.961883    6.037873   -0.000001
    -4.843536   -3.007770    3.566811
   O    V    Bi
   8   2   2
Direct configuration=    33
   0.70161877  0.34150466  0.63577440
   0.20573023  0.06584431  0.86422554
   0.84150466  0.70573026  0.63988589
   0.56584431  0.20161877  0.86011405
   0.29838123  0.65849534  0.36422560
   0.79426974  0.93415563  0.13577446
   0.15849540  0.29426974  0.36011405
   0.43415566  0.79838123  0.13988589
   0.37500000  0.12500000  0.25000000
   0.62500000  0.87500000  0.75000000
   0.87500000  0.62500000  0.25000000
   0.12500000  0.37500000  0.75000000
ZnO_Bulk                                
           1
     6.725172   -0.022366    0.000001
     2.961844    6.037874   -0.000001
    -4.843508   -3.007753    3.566832
   O    V    Bi
   8   2   2
Direct configuration=    34
   0.70161718  0.34150376  0.63577213
   0.20573160  0.06584499  0.86422781
   0.84150376  0.70573162  0.63988657
   0.56584499  0.20161718  0.86011337
   0.29838282  0.65849624  0.36422787
   0.79426838  0.93415495  0.13577219
   0.15849630  0.29426838  0.36011337
   0.43415498  0.79838282  0.13988657
   0.37500000  0.12500000  0.25000000
   0.62500000  0.87500000  0.75000000
   0.87500000  0.62500000  0.25000000
   0.12500000  0.37500000  0.75000000
ZnO_Bulk                                
           1
     6.725208   -0.022331    0.000001
     2.961891    6.037891   -0.000001
    -4.843550   -3.007779    3.566822
   O    V    Bi
   8   2   2
Direct configuration=    35
   0.70161705  0.34150375  0.63577184
   0.20573188  0.06584515  0.86422810
   0.84150375  0.70573190  0.63988670
   0.56584515  0.20161705  0.86011324
   0.29838295  0.65849625  0.36422816
   0.79426810  0.93415479  0.13577190
   0.15849631  0.29426810  0.36011324
   0.43415482  0.79838295  0.13988670
   0.37500000  0.12500000  0.25000000
   0.62500000  0.87500000  0.75000000
   0.87500000  0.62500000  0.25000000
   0.12500000  0.37500000  0.75000000
ZnO_Bulk                                
           1
     6.725198   -0.022327    0.000001
     2.961891    6.037879   -0.000001
    -4.843545   -3.007775    3.566812
   O    V    Bi
   8   2   2
Direct configuration=    36
   0.70161727  0.34150367  0.63577272
   0.20573092  0.06584449  0.86422722
   0.84150367  0.70573095  0.63988640
   0.56584449  0.20161727  0.86011354
   0.29838273  0.65849633  0.36422728
   0.79426905  0.93415545  0.13577278
   0.15849639  0.29426905  0.36011354
   0.43415548  0.79838273  0.13988640
   0.37500000  0.12500000  0.25000000
   0.62500000  0.87500000  0.75000000
   0.87500000  0.62500000  0.25000000
   0.12500000  0.37500000  0.75000000
ZnO_Bulk                                
           1
     6.725197   -0.022329    0.000001
     2.961888    6.037880   -0.000001
    -4.843543   -3.007774    3.566814
   O    V    Bi
   8   2   2
Direct configuration=    37
   0.70161930  0.34150486  0.63577479
   0.20573004  0.06584446  0.86422515
   0.84150486  0.70573007  0.63988556
   0.56584446  0.20161930  0.86011438
   0.29838070  0.65849514  0.36422521
   0.79426993  0.93415548  0.13577485
   0.15849520  0.29426993  0.36011438
   0.43415551  0.79838070  0.13988556
   0.37500000  0.12500000  0.25000000
   0.62500000  0.87500000  0.75000000
   0.87500000  0.62500000  0.25000000
   0.12500000  0.37500000  0.75000000
ZnO_Bulk                                
           1
     6.725197   -0.022328    0.000001
     2.961889    6.037879   -0.000001
    -4.843543   -3.007775    3.566813
   O    V    Bi
   8   2   2
Direct configuration=    38
   0.70161814  0.34150406  0.63577347
   0.20573057  0.06584461  0.86422647
   0.84150406  0.70573059  0.63988592
   0.56584461  0.20161814  0.86011402
   0.29838186  0.65849594  0.36422653
   0.79426941  0.93415533  0.13577353
   0.15849600  0.29426941  0.36011402
   0.43415536  0.79838186  0.13988592
   0.37500000  0.12500000  0.25000000
   0.62500000  0.87500000  0.75000000
   0.87500000  0.62500000  0.25000000
   0.12500000  0.37500000  0.75000000
