  12  12   1   0
  0.1228030E+02  0.6765146E-09  0.6765146E-09  0.5143166E-09  0.5000000E-15
  1.000000000000000E-004
  CAR 
 ZnO_Bulk                                
     14.95174822    -47.51451611  301      1.67766705      1.00000000
    -47.515  0.0000E+00  0.0000E+00
    -47.306  0.0000E+00  0.0000E+00
    -47.098  0.0000E+00  0.0000E+00
    -46.890  0.0000E+00  0.0000E+00
    -46.682  0.0000E+00  0.0000E+00
    -46.473  0.0000E+00  0.0000E+00
    -46.265  0.0000E+00  0.0000E+00
    -46.057  0.0000E+00  0.0000E+00
    -45.849  0.0000E+00  0.0000E+00
    -45.641  0.0000E+00  0.0000E+00
    -45.432  0.0000E+00  0.0000E+00
    -45.224  0.0000E+00  0.0000E+00
    -45.016  0.0000E+00  0.0000E+00
    -44.808  0.0000E+00  0.0000E+00
    -44.599  0.0000E+00  0.1000E+00
    -44.391  0.0000E+00  0.3000E+00
    -44.183  0.0000E+00  0.3000E+00
    -43.975  0.0000E+00  0.3000E+00
    -43.767  0.0000E+00  0.3000E+00
    -43.558  0.0000E+00  0.3000E+00
    -43.350  0.0000E+00  0.3000E+00
    -43.142  0.0000E+00  0.3000E+00
    -42.934  0.0000E+00  0.3000E+00
    -42.725  0.0000E+00  0.3000E+00
    -42.517  0.0000E+00  0.3000E+00
    -42.309  0.0000E+00  0.3000E+00
    -42.101  0.0000E+00  0.3000E+00
    -41.893  0.0000E+00  0.3000E+00
    -41.684  0.0000E+00  0.3000E+00
    -41.476  0.0000E+00  0.3000E+00
    -41.268  0.0000E+00  0.3000E+00
    -41.060  0.0000E+00  0.3000E+00
    -40.851  0.0000E+00  0.3000E+00
    -40.643  0.0000E+00  0.3000E+00
    -40.435  0.0000E+00  0.3000E+00
    -40.227  0.0000E+00  0.3000E+00
    -40.019  0.0000E+00  0.3000E+00
    -39.810  0.0000E+00  0.3000E+00
    -39.602  0.0000E+00  0.3000E+00
    -39.394  0.0000E+00  0.3000E+00
    -39.186  0.0000E+00  0.3000E+00
    -38.977  0.0000E+00  0.3000E+00
    -38.769  0.0000E+00  0.3000E+00
    -38.561  0.0000E+00  0.3000E+00
    -38.353  0.0000E+00  0.3000E+00
    -38.145  0.0000E+00  0.3000E+00
    -37.936  0.0000E+00  0.3000E+00
    -37.728  0.0000E+00  0.3000E+00
    -37.520  0.0000E+00  0.3000E+00
    -37.312  0.0000E+00  0.3000E+00
    -37.103  0.0000E+00  0.3000E+00
    -36.895  0.0000E+00  0.3000E+00
    -36.687  0.0000E+00  0.3000E+00
    -36.479  0.0000E+00  0.3000E+00
    -36.271  0.0000E+00  0.3000E+00
    -36.062  0.0000E+00  0.3000E+00
    -35.854  0.0000E+00  0.3000E+00
    -35.646  0.0000E+00  0.3000E+00
    -35.438  0.0000E+00  0.3000E+00
    -35.229  0.0000E+00  0.3000E+00
    -35.021  0.0000E+00  0.3000E+00
    -34.813  0.0000E+00  0.3000E+00
    -34.605  0.0000E+00  0.3000E+00
    -34.397  0.0000E+00  0.3000E+00
    -34.188  0.0000E+00  0.3000E+00
    -33.980  0.0000E+00  0.3000E+00
    -33.772  0.0000E+00  0.3000E+00
    -33.564  0.0000E+00  0.3000E+00
    -33.355  0.0000E+00  0.3000E+00
    -33.147  0.0000E+00  0.3000E+00
    -32.939  0.0000E+00  0.3000E+00
    -32.731  0.0000E+00  0.3000E+00
    -32.523  0.0000E+00  0.3000E+00
    -32.314  0.0000E+00  0.3000E+00
    -32.106  0.0000E+00  0.3000E+00
    -31.898  0.0000E+00  0.3000E+00
    -31.690  0.0000E+00  0.3000E+00
    -31.482  0.0000E+00  0.3000E+00
    -31.273  0.0000E+00  0.3000E+00
    -31.065  0.0000E+00  0.3000E+00
    -30.857  0.0000E+00  0.3000E+00
    -30.649  0.0000E+00  0.3000E+00
    -30.440  0.0000E+00  0.3000E+00
    -30.232  0.0000E+00  0.3000E+00
    -30.024  0.0000E+00  0.3000E+00
    -29.816  0.0000E+00  0.3000E+00
    -29.608  0.0000E+00  0.3000E+00
    -29.399  0.0000E+00  0.3000E+00
    -29.191  0.0000E+00  0.3000E+00
    -28.983  0.0000E+00  0.3000E+00
    -28.775  0.0000E+00  0.3000E+00
    -28.566  0.0000E+00  0.3000E+00
    -28.358  0.0000E+00  0.3000E+00
    -28.150  0.0000E+00  0.3000E+00
    -27.942  0.0000E+00  0.3000E+00
    -27.734  0.0000E+00  0.3000E+00
    -27.525  0.0000E+00  0.3000E+00
    -27.317  0.0000E+00  0.3000E+00
    -27.109  0.0000E+00  0.3000E+00
    -26.901  0.0000E+00  0.3000E+00
    -26.692  0.0000E+00  0.3000E+00
    -26.484  0.0000E+00  0.3000E+00
    -26.276  0.0000E+00  0.3000E+00
    -26.068  0.0000E+00  0.3000E+00
    -25.860  0.0000E+00  0.3000E+00
    -25.651  0.0000E+00  0.3000E+00
    -25.443  0.0000E+00  0.3000E+00
    -25.235  0.0000E+00  0.3000E+00
    -25.027  0.0000E+00  0.3000E+00
    -24.818  0.0000E+00  0.3000E+00
    -24.610  0.0000E+00  0.3000E+00
    -24.402  0.0000E+00  0.3000E+00
    -24.194  0.3710E+00  0.4289E+00
    -23.986  0.2668E+01  0.7492E+00
    -23.777  0.0000E+00  0.8000E+00
    -23.569  0.0000E+00  0.8000E+00
    -23.361  0.0000E+00  0.8000E+00
    -23.153  0.0000E+00  0.8000E+00
    -22.944  0.0000E+00  0.8000E+00
    -22.736  0.0000E+00  0.8000E+00
    -22.528  0.0000E+00  0.8000E+00
    -22.320  0.0000E+00  0.8000E+00
    -22.112  0.0000E+00  0.8000E+00
    -21.903  0.0000E+00  0.8000E+00
    -21.695  0.2900E-02  0.8001E+00
    -21.487  0.4645E-01  0.8053E+00
    -21.279  0.8031E-01  0.8192E+00
    -21.070  0.6081E-01  0.8359E+00
    -20.862  0.3721E-01  0.8460E+00
    -20.654  0.7811E-01  0.8551E+00
    -20.446  0.1384E+00  0.8840E+00
    -20.238  0.5442E-01  0.8994E+00
    -20.029  0.3045E+00  0.9512E+00
    -19.821  0.1183E+00  0.1001E+01
    -19.613  0.3895E+00  0.1068E+01
    -19.405  0.2085E+00  0.1159E+01
    -19.196  0.0000E+00  0.1200E+01
    -18.988  0.0000E+00  0.1200E+01
    -18.780  0.0000E+00  0.1200E+01
    -18.572  0.0000E+00  0.1200E+01
    -18.364  0.0000E+00  0.1200E+01
    -18.155  0.0000E+00  0.1200E+01
    -17.947  0.0000E+00  0.1200E+01
    -17.739  0.0000E+00  0.1200E+01
    -17.531  0.0000E+00  0.1200E+01
    -17.322  0.0000E+00  0.1200E+01
    -17.114  0.0000E+00  0.1200E+01
    -16.906  0.0000E+00  0.1200E+01
    -16.698  0.0000E+00  0.1200E+01
    -16.490  0.0000E+00  0.1200E+01
    -16.281  0.0000E+00  0.1200E+01
    -16.073  0.0000E+00  0.1200E+01
    -15.865  0.0000E+00  0.1200E+01
    -15.657  0.0000E+00  0.1200E+01
    -15.449  0.0000E+00  0.1200E+01
    -15.240  0.0000E+00  0.1200E+01
    -15.032  0.0000E+00  0.1200E+01
    -14.824  0.0000E+00  0.1200E+01
    -14.616  0.0000E+00  0.1200E+01
    -14.407  0.0000E+00  0.1200E+01
    -14.199  0.0000E+00  0.1200E+01
    -13.991  0.0000E+00  0.1200E+01
    -13.783  0.0000E+00  0.1200E+01
    -13.575  0.0000E+00  0.1200E+01
    -13.366  0.0000E+00  0.1200E+01
    -13.158  0.0000E+00  0.1200E+01
    -12.950  0.0000E+00  0.1200E+01
    -12.742  0.0000E+00  0.1200E+01
    -12.533  0.0000E+00  0.1200E+01
    -12.325  0.0000E+00  0.1200E+01
    -12.117  0.0000E+00  0.1200E+01
    -11.909  0.0000E+00  0.1200E+01
    -11.701  0.0000E+00  0.1200E+01
    -11.492  0.0000E+00  0.1200E+01
    -11.284  0.0000E+00  0.1200E+01
    -11.076  0.0000E+00  0.1200E+01
    -10.868  0.0000E+00  0.1200E+01
    -10.659  0.0000E+00  0.1200E+01
    -10.451  0.0000E+00  0.1200E+01
    -10.243  0.0000E+00  0.1200E+01
    -10.035  0.0000E+00  0.1200E+01
     -9.827  0.2189E-01  0.1201E+01
     -9.618  0.1450E+00  0.1221E+01
     -9.410  0.7318E-01  0.1240E+01
     -9.202  0.3361E-01  0.1250E+01
     -8.994  0.8234E-01  0.1267E+01
     -8.785  0.1119E+00  0.1295E+01
     -8.577  0.0000E+00  0.1300E+01
     -8.369  0.0000E+00  0.1300E+01
     -8.161  0.0000E+00  0.1300E+01
     -7.953  0.0000E+00  0.1300E+01
     -7.744  0.0000E+00  0.1300E+01
     -7.536  0.0000E+00  0.1300E+01
     -7.328  0.0000E+00  0.1300E+01
     -7.120  0.0000E+00  0.1300E+01
     -6.911  0.0000E+00  0.1300E+01
     -6.703  0.0000E+00  0.1300E+01
     -6.495  0.0000E+00  0.1300E+01
     -6.287  0.0000E+00  0.1300E+01
     -6.079  0.0000E+00  0.1300E+01
     -5.870  0.0000E+00  0.1300E+01
     -5.662  0.2418E-02  0.1300E+01
     -5.454  0.2265E+00  0.1331E+01
     -5.246  0.1763E+00  0.1371E+01
     -5.037  0.2144E+00  0.1403E+01
     -4.829  0.1593E+00  0.1445E+01
     -4.621  0.1792E+00  0.1485E+01
     -4.413  0.2195E-01  0.1500E+01
     -4.205  0.2153E+00  0.1527E+01
     -3.996  0.2518E+00  0.1564E+01
     -3.788  0.1464E+00  0.1598E+01
     -3.580  0.2314E+00  0.1640E+01
     -3.372  0.2586E+00  0.1705E+01
     -3.163  0.3408E+00  0.1766E+01
     -2.955  0.3700E+00  0.1828E+01
     -2.747  0.2879E+00  0.1874E+01
     -2.539  0.3064E+00  0.1929E+01
     -2.331  0.1815E+00  0.1977E+01
     -2.122  0.1768E+00  0.2017E+01
     -1.914  0.1518E+00  0.2053E+01
     -1.706  0.1637E+00  0.2079E+01
     -1.498  0.4075E-01  0.2103E+01
     -1.289  0.1574E+00  0.2142E+01
     -1.081  0.2524E+00  0.2174E+01
     -0.873  0.2483E+00  0.2222E+01
     -0.665  0.3125E+00  0.2270E+01
     -0.457  0.3255E+00  0.2318E+01
     -0.248  0.2711E+00  0.2382E+01
     -0.040  0.1450E-02  0.2400E+01
      0.168  0.4386E-01  0.2403E+01
      0.376  0.8224E-01  0.2425E+01
      0.585  0.6262E-01  0.2440E+01
      0.793  0.4200E-01  0.2451E+01
      1.001  0.4541E-01  0.2460E+01
      1.209  0.8622E-01  0.2472E+01
      1.417  0.1027E+00  0.2496E+01
      1.626  0.0000E+00  0.2500E+01
      1.834  0.0000E+00  0.2500E+01
      2.042  0.0000E+00  0.2500E+01
      2.250  0.0000E+00  0.2500E+01
      2.458  0.0000E+00  0.2500E+01
      2.667  0.0000E+00  0.2500E+01
      2.875  0.0000E+00  0.2500E+01
      3.083  0.0000E+00  0.2500E+01
      3.291  0.0000E+00  0.2500E+01
      3.500  0.0000E+00  0.2500E+01
      3.708  0.0000E+00  0.2500E+01
      3.916  0.0000E+00  0.2500E+01
      4.124  0.0000E+00  0.2500E+01
      4.332  0.0000E+00  0.2500E+01
      4.541  0.0000E+00  0.2500E+01
      4.749  0.0000E+00  0.2500E+01
      4.957  0.0000E+00  0.2500E+01
      5.165  0.0000E+00  0.2500E+01
      5.374  0.0000E+00  0.2500E+01
      5.582  0.0000E+00  0.2500E+01
      5.790  0.0000E+00  0.2500E+01
      5.998  0.0000E+00  0.2500E+01
      6.206  0.0000E+00  0.2500E+01
      6.415  0.0000E+00  0.2500E+01
      6.623  0.0000E+00  0.2500E+01
      6.831  0.0000E+00  0.2500E+01
      7.039  0.0000E+00  0.2500E+01
      7.248  0.0000E+00  0.2500E+01
      7.456  0.0000E+00  0.2500E+01
      7.664  0.0000E+00  0.2500E+01
      7.872  0.0000E+00  0.2500E+01
      8.080  0.0000E+00  0.2500E+01
      8.289  0.0000E+00  0.2500E+01
      8.497  0.0000E+00  0.2500E+01
      8.705  0.0000E+00  0.2500E+01
      8.913  0.5963E-01  0.2503E+01
      9.122  0.1470E+00  0.2532E+01
      9.330  0.1211E+00  0.2553E+01
      9.538  0.7274E-01  0.2594E+01
      9.746  0.1390E+00  0.2606E+01
      9.954  0.2221E+00  0.2672E+01
     10.163  0.7251E-01  0.2699E+01
     10.371  0.1810E+00  0.2735E+01
     10.579  0.1932E+00  0.2775E+01
     10.787  0.1738E+00  0.2804E+01
     10.996  0.1491E+00  0.2844E+01
     11.204  0.1794E+00  0.2871E+01
     11.412  0.1405E+00  0.2903E+01
     11.620  0.2140E+00  0.2948E+01
     11.828  0.6277E-01  0.2996E+01
     12.037  0.2760E-02  0.3000E+01
     12.245  0.0000E+00  0.3000E+01
     12.453  0.0000E+00  0.3000E+01
     12.661  0.0000E+00  0.3000E+01
     12.870  0.0000E+00  0.3000E+01
     13.078  0.0000E+00  0.3000E+01
     13.286  0.0000E+00  0.3000E+01
     13.494  0.0000E+00  0.3000E+01
     13.702  0.0000E+00  0.3000E+01
     13.911  0.0000E+00  0.3000E+01
     14.119  0.0000E+00  0.3000E+01
     14.327  0.0000E+00  0.3000E+01
     14.535  0.0000E+00  0.3000E+01
     14.744  0.0000E+00  0.3000E+01
     14.952  0.0000E+00  0.3000E+01
     14.95174822    -47.51451611  301      1.67766705      1.00000000
    -47.515  0.0000E+00  0.0000E+00  0.0000E+00  0.0000E+00  0.0000E+00  0.0000E+00  0.0000E+00  0.0000E+00  0.0000E+00
    -47.306  0.0000E+00  0.0000E+00  0.0000E+00  0.0000E+00  0.0000E+00  0.0000E+00  0.0000E+00  0.0000E+00  0.0000E+00
    -47.098  0.0000E+00  0.0000E+00  0.0000E+00  0.0000E+00  0.0000E+00  0.0000E+00  0.0000E+00  0.0000E+00  0.0000E+00
    -46.890  0.0000E+00  0.0000E+00  0.0000E+00  0.0000E+00  0.0000E+00  0.0000E+00  0.0000E+00  0.0000E+00  0.0000E+00
    -46.682  0.0000E+00  0.0000E+00  0.0000E+00  0.0000E+00  0.0000E+00  0.0000E+00  0.0000E+00  0.0000E+00  0.0000E+00
    -46.473  0.0000E+00  0.0000E+00  0.0000E+00  0.0000E+00  0.0000E+00  0.0000E+00  0.0000E+00  0.0000E+00  0.0000E+00
    -46.265  0.0000E+00  0.0000E+00  0.0000E+00  0.0000E+00  0.0000E+00  0.0000E+00  0.0000E+00  0.0000E+00  0.0000E+00
    -46.057  0.0000E+00  0.0000E+00  0.0000E+00  0.0000E+00  0.0000E+00  0.0000E+00  0.0000E+00  0.0000E+00  0.0000E+00
    -45.849  0.0000E+00  0.0000E+00  0.0000E+00  0.0000E+00  0.0000E+00  0.0000E+00  0.0000E+00  0.0000E+00  0.0000E+00
    -45.641  0.0000E+00  0.0000E+00  0.0000E+00  0.0000E+00  0.0000E+00  0.0000E+00  0.0000E+00  0.0000E+00  0.0000E+00
    -45.432  0.0000E+00  0.0000E+00  0.0000E+00  0.0000E+00  0.0000E+00  0.0000E+00  0.0000E+00  0.0000E+00  0.0000E+00
    -45.224  0.0000E+00  0.0000E+00  0.0000E+00  0.0000E+00  0.0000E+00  0.0000E+00  0.0000E+00  0.0000E+00  0.0000E+00
    -45.016  0.0000E+00  0.0000E+00  0.0000E+00  0.0000E+00  0.0000E+00  0.0000E+00  0.0000E+00  0.0000E+00  0.0000E+00
    -44.808  0.0000E+00  0.0000E+00  0.0000E+00  0.0000E+00  0.0000E+00  0.0000E+00  0.0000E+00  0.0000E+00  0.0000E+00
    -44.599  0.0000E+00  0.0000E+00  0.0000E+00  0.0000E+00  0.0000E+00  0.0000E+00  0.0000E+00  0.0000E+00  0.0000E+00
    -44.391  0.0000E+00  0.0000E+00  0.0000E+00  0.0000E+00  0.0000E+00  0.0000E+00  0.0000E+00  0.0000E+00  0.0000E+00
    -44.183  0.0000E+00  0.0000E+00  0.0000E+00  0.0000E+00  0.0000E+00  0.0000E+00  0.0000E+00  0.0000E+00  0.0000E+00
    -43.975  0.0000E+00  0.0000E+00  0.0000E+00  0.0000E+00  0.0000E+00  0.0000E+00  0.0000E+00  0.0000E+00  0.0000E+00
    -43.767  0.0000E+00  0.0000E+00  0.0000E+00  0.0000E+00  0.0000E+00  0.0000E+00  0.0000E+00  0.0000E+00  0.0000E+00
    -43.558  0.0000E+00  0.0000E+00  0.0000E+00  0.0000E+00  0.0000E+00  0.0000E+00  0.0000E+00  0.0000E+00  0.0000E+00
    -43.350  0.0000E+00  0.0000E+00  0.0000E+00  0.0000E+00  0.0000E+00  0.0000E+00  0.0000E+00  0.0000E+00  0.0000E+00
    -43.142  0.0000E+00  0.0000E+00  0.0000E+00  0.0000E+00  0.0000E+00  0.0000E+00  0.0000E+00  0.0000E+00  0.0000E+00
    -42.934  0.0000E+00  0.0000E+00  0.0000E+00  0.0000E+00  0.0000E+00  0.0000E+00  0.0000E+00  0.0000E+00  0.0000E+00
    -42.725  0.0000E+00  0.0000E+00  0.0000E+00  0.0000E+00  0.0000E+00  0.0000E+00  0.0000E+00  0.0000E+00  0.0000E+00
    -42.517  0.0000E+00  0.0000E+00  0.0000E+00  0.0000E+00  0.0000E+00  0.0000E+00  0.0000E+00  0.0000E+00  0.0000E+00
    -42.309  0.0000E+00  0.0000E+00  0.0000E+00  0.0000E+00  0.0000E+00  0.0000E+00  0.0000E+00  0.0000E+00  0.0000E+00
    -42.101  0.0000E+00  0.0000E+00  0.0000E+00  0.0000E+00  0.0000E+00  0.0000E+00  0.0000E+00  0.0000E+00  0.0000E+00
    -41.893  0.0000E+00  0.0000E+00  0.0000E+00  0.0000E+00  0.0000E+00  0.0000E+00  0.0000E+00  0.0000E+00  0.0000E+00
    -41.684  0.0000E+00  0.0000E+00  0.0000E+00  0.0000E+00  0.0000E+00  0.0000E+00  0.0000E+00  0.0000E+00  0.0000E+00
    -41.476  0.0000E+00  0.0000E+00  0.0000E+00  0.0000E+00  0.0000E+00  0.0000E+00  0.0000E+00  0.0000E+00  0.0000E+00
    -41.268  0.0000E+00  0.0000E+00  0.0000E+00  0.0000E+00  0.0000E+00  0.0000E+00  0.0000E+00  0.0000E+00  0.0000E+00
    -41.060  0.0000E+00  0.0000E+00  0.0000E+00  0.0000E+00  0.0000E+00  0.0000E+00  0.0000E+00  0.0000E+00  0.0000E+00
    -40.851  0.0000E+00  0.0000E+00  0.0000E+00  0.0000E+00  0.0000E+00  0.0000E+00  0.0000E+00  0.0000E+00  0.0000E+00
    -40.643  0.0000E+00  0.0000E+00  0.0000E+00  0.0000E+00  0.0000E+00  0.0000E+00  0.0000E+00  0.0000E+00  0.0000E+00
    -40.435  0.0000E+00  0.0000E+00  0.0000E+00  0.0000E+00  0.0000E+00  0.0000E+00  0.0000E+00  0.0000E+00  0.0000E+00
    -40.227  0.0000E+00  0.0000E+00  0.0000E+00  0.0000E+00  0.0000E+00  0.0000E+00  0.0000E+00  0.0000E+00  0.0000E+00
    -40.019  0.0000E+00  0.0000E+00  0.0000E+00  0.0000E+00  0.0000E+00  0.0000E+00  0.0000E+00  0.0000E+00  0.0000E+00
    -39.810  0.0000E+00  0.0000E+00  0.0000E+00  0.0000E+00  0.0000E+00  0.0000E+00  0.0000E+00  0.0000E+00  0.0000E+00
    -39.602  0.0000E+00  0.0000E+00  0.0000E+00  0.0000E+00  0.0000E+00  0.0000E+00  0.0000E+00  0.0000E+00  0.0000E+00
    -39.394  0.0000E+00  0.0000E+00  0.0000E+00  0.0000E+00  0.0000E+00  0.0000E+00  0.0000E+00  0.0000E+00  0.0000E+00
    -39.186  0.0000E+00  0.0000E+00  0.0000E+00  0.0000E+00  0.0000E+00  0.0000E+00  0.0000E+00  0.0000E+00  0.0000E+00
    -38.977  0.0000E+00  0.0000E+00  0.0000E+00  0.0000E+00  0.0000E+00  0.0000E+00  0.0000E+00  0.0000E+00  0.0000E+00
    -38.769  0.0000E+00  0.0000E+00  0.0000E+00  0.0000E+00  0.0000E+00  0.0000E+00  0.0000E+00  0.0000E+00  0.0000E+00
    -38.561  0.0000E+00  0.0000E+00  0.0000E+00  0.0000E+00  0.0000E+00  0.0000E+00  0.0000E+00  0.0000E+00  0.0000E+00
    -38.353  0.0000E+00  0.0000E+00  0.0000E+00  0.0000E+00  0.0000E+00  0.0000E+00  0.0000E+00  0.0000E+00  0.0000E+00
    -38.145  0.0000E+00  0.0000E+00  0.0000E+00  0.0000E+00  0.0000E+00  0.0000E+00  0.0000E+00  0.0000E+00  0.0000E+00
    -37.936  0.0000E+00  0.0000E+00  0.0000E+00  0.0000E+00  0.0000E+00  0.0000E+00  0.0000E+00  0.0000E+00  0.0000E+00
    -37.728  0.0000E+00  0.0000E+00  0.0000E+00  0.0000E+00  0.0000E+00  0.0000E+00  0.0000E+00  0.0000E+00  0.0000E+00
    -37.520  0.0000E+00  0.0000E+00  0.0000E+00  0.0000E+00  0.0000E+00  0.0000E+00  0.0000E+00  0.0000E+00  0.0000E+00
    -37.312  0.0000E+00  0.0000E+00  0.0000E+00  0.0000E+00  0.0000E+00  0.0000E+00  0.0000E+00  0.0000E+00  0.0000E+00
    -37.103  0.0000E+00  0.0000E+00  0.0000E+00  0.0000E+00  0.0000E+00  0.0000E+00  0.0000E+00  0.0000E+00  0.0000E+00
    -36.895  0.0000E+00  0.0000E+00  0.0000E+00  0.0000E+00  0.0000E+00  0.0000E+00  0.0000E+00  0.0000E+00  0.0000E+00
    -36.687  0.0000E+00  0.0000E+00  0.0000E+00  0.0000E+00  0.0000E+00  0.0000E+00  0.0000E+00  0.0000E+00  0.0000E+00
    -36.479  0.0000E+00  0.0000E+00  0.0000E+00  0.0000E+00  0.0000E+00  0.0000E+00  0.0000E+00  0.0000E+00  0.0000E+00
    -36.271  0.0000E+00  0.0000E+00  0.0000E+00  0.0000E+00  0.0000E+00  0.0000E+00  0.0000E+00  0.0000E+00  0.0000E+00
    -36.062  0.0000E+00  0.0000E+00  0.0000E+00  0.0000E+00  0.0000E+00  0.0000E+00  0.0000E+00  0.0000E+00  0.0000E+00
    -35.854  0.0000E+00  0.0000E+00  0.0000E+00  0.0000E+00  0.0000E+00  0.0000E+00  0.0000E+00  0.0000E+00  0.0000E+00
    -35.646  0.0000E+00  0.0000E+00  0.0000E+00  0.0000E+00  0.0000E+00  0.0000E+00  0.0000E+00  0.0000E+00  0.0000E+00
    -35.438  0.0000E+00  0.0000E+00  0.0000E+00  0.0000E+00  0.0000E+00  0.0000E+00  0.0000E+00  0.0000E+00  0.0000E+00
    -35.229  0.0000E+00  0.0000E+00  0.0000E+00  0.0000E+00  0.0000E+00  0.0000E+00  0.0000E+00  0.0000E+00  0.0000E+00
    -35.021  0.0000E+00  0.0000E+00  0.0000E+00  0.0000E+00  0.0000E+00  0.0000E+00  0.0000E+00  0.0000E+00  0.0000E+00
    -34.813  0.0000E+00  0.0000E+00  0.0000E+00  0.0000E+00  0.0000E+00  0.0000E+00  0.0000E+00  0.0000E+00  0.0000E+00
    -34.605  0.0000E+00  0.0000E+00  0.0000E+00  0.0000E+00  0.0000E+00  0.0000E+00  0.0000E+00  0.0000E+00  0.0000E+00
    -34.397  0.0000E+00  0.0000E+00  0.0000E+00  0.0000E+00  0.0000E+00  0.0000E+00  0.0000E+00  0.0000E+00  0.0000E+00
    -34.188  0.0000E+00  0.0000E+00  0.0000E+00  0.0000E+00  0.0000E+00  0.0000E+00  0.0000E+00  0.0000E+00  0.0000E+00
    -33.980  0.0000E+00  0.0000E+00  0.0000E+00  0.0000E+00  0.0000E+00  0.0000E+00  0.0000E+00  0.0000E+00  0.0000E+00
    -33.772  0.0000E+00  0.0000E+00  0.0000E+00  0.0000E+00  0.0000E+00  0.0000E+00  0.0000E+00  0.0000E+00  0.0000E+00
    -33.564  0.0000E+00  0.0000E+00  0.0000E+00  0.0000E+00  0.0000E+00  0.0000E+00  0.0000E+00  0.0000E+00  0.0000E+00
    -33.355  0.0000E+00  0.0000E+00  0.0000E+00  0.0000E+00  0.0000E+00  0.0000E+00  0.0000E+00  0.0000E+00  0.0000E+00
    -33.147  0.0000E+00  0.0000E+00  0.0000E+00  0.0000E+00  0.0000E+00  0.0000E+00  0.0000E+00  0.0000E+00  0.0000E+00
    -32.939  0.0000E+00  0.0000E+00  0.0000E+00  0.0000E+00  0.0000E+00  0.0000E+00  0.0000E+00  0.0000E+00  0.0000E+00
    -32.731  0.0000E+00  0.0000E+00  0.0000E+00  0.0000E+00  0.0000E+00  0.0000E+00  0.0000E+00  0.0000E+00  0.0000E+00
    -32.523  0.0000E+00  0.0000E+00  0.0000E+00  0.0000E+00  0.0000E+00  0.0000E+00  0.0000E+00  0.0000E+00  0.0000E+00
    -32.314  0.0000E+00  0.0000E+00  0.0000E+00  0.0000E+00  0.0000E+00  0.0000E+00  0.0000E+00  0.0000E+00  0.0000E+00
    -32.106  0.0000E+00  0.0000E+00  0.0000E+00  0.0000E+00  0.0000E+00  0.0000E+00  0.0000E+00  0.0000E+00  0.0000E+00
    -31.898  0.0000E+00  0.0000E+00  0.0000E+00  0.0000E+00  0.0000E+00  0.0000E+00  0.0000E+00  0.0000E+00  0.0000E+00
    -31.690  0.0000E+00  0.0000E+00  0.0000E+00  0.0000E+00  0.0000E+00  0.0000E+00  0.0000E+00  0.0000E+00  0.0000E+00
    -31.482  0.0000E+00  0.0000E+00  0.0000E+00  0.0000E+00  0.0000E+00  0.0000E+00  0.0000E+00  0.0000E+00  0.0000E+00
    -31.273  0.0000E+00  0.0000E+00  0.0000E+00  0.0000E+00  0.0000E+00  0.0000E+00  0.0000E+00  0.0000E+00  0.0000E+00
    -31.065  0.0000E+00  0.0000E+00  0.0000E+00  0.0000E+00  0.0000E+00  0.0000E+00  0.0000E+00  0.0000E+00  0.0000E+00
    -30.857  0.0000E+00  0.0000E+00  0.0000E+00  0.0000E+00  0.0000E+00  0.0000E+00  0.0000E+00  0.0000E+00  0.0000E+00
    -30.649  0.0000E+00  0.0000E+00  0.0000E+00  0.0000E+00  0.0000E+00  0.0000E+00  0.0000E+00  0.0000E+00  0.0000E+00
    -30.440  0.0000E+00  0.0000E+00  0.0000E+00  0.0000E+00  0.0000E+00  0.0000E+00  0.0000E+00  0.0000E+00  0.0000E+00
    -30.232  0.0000E+00  0.0000E+00  0.0000E+00  0.0000E+00  0.0000E+00  0.0000E+00  0.0000E+00  0.0000E+00  0.0000E+00
    -30.024  0.0000E+00  0.0000E+00  0.0000E+00  0.0000E+00  0.0000E+00  0.0000E+00  0.0000E+00  0.0000E+00  0.0000E+00
    -29.816  0.0000E+00  0.0000E+00  0.0000E+00  0.0000E+00  0.0000E+00  0.0000E+00  0.0000E+00  0.0000E+00  0.0000E+00
    -29.608  0.0000E+00  0.0000E+00  0.0000E+00  0.0000E+00  0.0000E+00  0.0000E+00  0.0000E+00  0.0000E+00  0.0000E+00
    -29.399  0.0000E+00  0.0000E+00  0.0000E+00  0.0000E+00  0.0000E+00  0.0000E+00  0.0000E+00  0.0000E+00  0.0000E+00
    -29.191  0.0000E+00  0.0000E+00  0.0000E+00  0.0000E+00  0.0000E+00  0.0000E+00  0.0000E+00  0.0000E+00  0.0000E+00
    -28.983  0.0000E+00  0.0000E+00  0.0000E+00  0.0000E+00  0.0000E+00  0.0000E+00  0.0000E+00  0.0000E+00  0.0000E+00
    -28.775  0.0000E+00  0.0000E+00  0.0000E+00  0.0000E+00  0.0000E+00  0.0000E+00  0.0000E+00  0.0000E+00  0.0000E+00
    -28.566  0.0000E+00  0.0000E+00  0.0000E+00  0.0000E+00  0.0000E+00  0.0000E+00  0.0000E+00  0.0000E+00  0.0000E+00
    -28.358  0.0000E+00  0.0000E+00  0.0000E+00  0.0000E+00  0.0000E+00  0.0000E+00  0.0000E+00  0.0000E+00  0.0000E+00
    -28.150  0.0000E+00  0.0000E+00  0.0000E+00  0.0000E+00  0.0000E+00  0.0000E+00  0.0000E+00  0.0000E+00  0.0000E+00
    -27.942  0.0000E+00  0.0000E+00  0.0000E+00  0.0000E+00  0.0000E+00  0.0000E+00  0.0000E+00  0.0000E+00  0.0000E+00
    -27.734  0.0000E+00  0.0000E+00  0.0000E+00  0.0000E+00  0.0000E+00  0.0000E+00  0.0000E+00  0.0000E+00  0.0000E+00
    -27.525  0.0000E+00  0.0000E+00  0.0000E+00  0.0000E+00  0.0000E+00  0.0000E+00  0.0000E+00  0.0000E+00  0.0000E+00
    -27.317  0.0000E+00  0.0000E+00  0.0000E+00  0.0000E+00  0.0000E+00  0.0000E+00  0.0000E+00  0.0000E+00  0.0000E+00
    -27.109  0.0000E+00  0.0000E+00  0.0000E+00  0.0000E+00  0.0000E+00  0.0000E+00  0.0000E+00  0.0000E+00  0.0000E+00
    -26.901  0.0000E+00  0.0000E+00  0.0000E+00  0.0000E+00  0.0000E+00  0.0000E+00  0.0000E+00  0.0000E+00  0.0000E+00
    -26.692  0.0000E+00  0.0000E+00  0.0000E+00  0.0000E+00  0.0000E+00  0.0000E+00  0.0000E+00  0.0000E+00  0.0000E+00
    -26.484  0.0000E+00  0.0000E+00  0.0000E+00  0.0000E+00  0.0000E+00  0.0000E+00  0.0000E+00  0.0000E+00  0.0000E+00
    -26.276  0.0000E+00  0.0000E+00  0.0000E+00  0.0000E+00  0.0000E+00  0.0000E+00  0.0000E+00  0.0000E+00  0.0000E+00
    -26.068  0.0000E+00  0.0000E+00  0.0000E+00  0.0000E+00  0.0000E+00  0.0000E+00  0.0000E+00  0.0000E+00  0.0000E+00
    -25.860  0.0000E+00  0.0000E+00  0.0000E+00  0.0000E+00  0.0000E+00  0.0000E+00  0.0000E+00  0.0000E+00  0.0000E+00
    -25.651  0.0000E+00  0.0000E+00  0.0000E+00  0.0000E+00  0.0000E+00  0.0000E+00  0.0000E+00  0.0000E+00  0.0000E+00
    -25.443  0.0000E+00  0.0000E+00  0.0000E+00  0.0000E+00  0.0000E+00  0.0000E+00  0.0000E+00  0.0000E+00  0.0000E+00
    -25.235  0.0000E+00  0.0000E+00  0.0000E+00  0.0000E+00  0.0000E+00  0.0000E+00  0.0000E+00  0.0000E+00  0.0000E+00
    -25.027  0.0000E+00  0.0000E+00  0.0000E+00  0.0000E+00  0.0000E+00  0.0000E+00  0.0000E+00  0.0000E+00  0.0000E+00
    -24.818  0.0000E+00  0.0000E+00  0.0000E+00  0.0000E+00  0.0000E+00  0.0000E+00  0.0000E+00  0.0000E+00  0.0000E+00
    -24.610  0.0000E+00  0.0000E+00  0.0000E+00  0.0000E+00  0.0000E+00  0.0000E+00  0.0000E+00  0.0000E+00  0.0000E+00
    -24.402  0.0000E+00  0.0000E+00  0.0000E+00  0.0000E+00  0.0000E+00  0.0000E+00  0.0000E+00  0.0000E+00  0.0000E+00
    -24.194  0.9567E-01  0.2879E-02  0.1267E-02  0.1360E-02  0.0000E+00  0.0000E+00  0.0000E+00  0.0000E+00  0.0000E+00
    -23.986  0.1050E-01  0.2334E-03  0.6575E-02  0.5590E-02  0.0000E+00  0.0000E+00  0.0000E+00  0.0000E+00  0.0000E+00
    -23.777  0.0000E+00  0.0000E+00  0.0000E+00  0.0000E+00  0.0000E+00  0.0000E+00  0.0000E+00  0.0000E+00  0.0000E+00
    -23.569  0.0000E+00  0.0000E+00  0.0000E+00  0.0000E+00  0.0000E+00  0.0000E+00  0.0000E+00  0.0000E+00  0.0000E+00
    -23.361  0.0000E+00  0.0000E+00  0.0000E+00  0.0000E+00  0.0000E+00  0.0000E+00  0.0000E+00  0.0000E+00  0.0000E+00
    -23.153  0.0000E+00  0.0000E+00  0.0000E+00  0.0000E+00  0.0000E+00  0.0000E+00  0.0000E+00  0.0000E+00  0.0000E+00
    -22.944  0.0000E+00  0.0000E+00  0.0000E+00  0.0000E+00  0.0000E+00  0.0000E+00  0.0000E+00  0.0000E+00  0.0000E+00
    -22.736  0.0000E+00  0.0000E+00  0.0000E+00  0.0000E+00  0.0000E+00  0.0000E+00  0.0000E+00  0.0000E+00  0.0000E+00
    -22.528  0.0000E+00  0.0000E+00  0.0000E+00  0.0000E+00  0.0000E+00  0.0000E+00  0.0000E+00  0.0000E+00  0.0000E+00
    -22.320  0.0000E+00  0.0000E+00  0.0000E+00  0.0000E+00  0.0000E+00  0.0000E+00  0.0000E+00  0.0000E+00  0.0000E+00
    -22.112  0.0000E+00  0.0000E+00  0.0000E+00  0.0000E+00  0.0000E+00  0.0000E+00  0.0000E+00  0.0000E+00  0.0000E+00
    -21.903  0.0000E+00  0.0000E+00  0.0000E+00  0.0000E+00  0.0000E+00  0.0000E+00  0.0000E+00  0.0000E+00  0.0000E+00
    -21.695  0.1607E-01  0.5497E-05  0.4382E-05  0.1322E-05  0.0000E+00  0.0000E+00  0.0000E+00  0.0000E+00  0.0000E+00
    -21.487  0.2774E+00  0.9468E-04  0.8937E-04  0.2771E-04  0.0000E+00  0.0000E+00  0.0000E+00  0.0000E+00  0.0000E+00
    -21.279  0.5193E+00  0.1919E-03  0.2110E-03  0.8095E-04  0.0000E+00  0.0000E+00  0.0000E+00  0.0000E+00  0.0000E+00
    -21.070  0.4050E+00  0.1785E-03  0.1804E-03  0.1179E-03  0.0000E+00  0.0000E+00  0.0000E+00  0.0000E+00  0.0000E+00
    -20.862  0.2430E+00  0.9788E-04  0.1280E-03  0.1331E-03  0.0000E+00  0.0000E+00  0.0000E+00  0.0000E+00  0.0000E+00
    -20.654  0.3382E+00  0.6902E-03  0.3798E-03  0.2473E-03  0.0000E+00  0.0000E+00  0.0000E+00  0.0000E+00  0.0000E+00
    -20.446  0.4536E+00  0.1230E-02  0.4090E-03  0.3193E-03  0.0000E+00  0.0000E+00  0.0000E+00  0.0000E+00  0.0000E+00
    -20.238  0.2516E+00  0.4694E-03  0.1359E-03  0.9687E-04  0.0000E+00  0.0000E+00  0.0000E+00  0.0000E+00  0.0000E+00
    -20.029  0.1356E+01  0.3039E-02  0.5147E-03  0.7128E-03  0.0000E+00  0.0000E+00  0.0000E+00  0.0000E+00  0.0000E+00
    -19.821  0.5040E+00  0.1084E-02  0.1852E-03  0.1799E-03  0.0000E+00  0.0000E+00  0.0000E+00  0.0000E+00  0.0000E+00
    -19.613  0.1356E+01  0.4078E-02  0.2654E-03  0.5526E-03  0.0000E+00  0.0000E+00  0.0000E+00  0.0000E+00  0.0000E+00
    -19.405  0.2347E+00  0.8905E-03  0.1982E-03  0.1686E-03  0.0000E+00  0.0000E+00  0.0000E+00  0.0000E+00  0.0000E+00
    -19.196  0.0000E+00  0.0000E+00  0.0000E+00  0.0000E+00  0.0000E+00  0.0000E+00  0.0000E+00  0.0000E+00  0.0000E+00
    -18.988  0.0000E+00  0.0000E+00  0.0000E+00  0.0000E+00  0.0000E+00  0.0000E+00  0.0000E+00  0.0000E+00  0.0000E+00
    -18.780  0.0000E+00  0.0000E+00  0.0000E+00  0.0000E+00  0.0000E+00  0.0000E+00  0.0000E+00  0.0000E+00  0.0000E+00
    -18.572  0.0000E+00  0.0000E+00  0.0000E+00  0.0000E+00  0.0000E+00  0.0000E+00  0.0000E+00  0.0000E+00  0.0000E+00
    -18.364  0.0000E+00  0.0000E+00  0.0000E+00  0.0000E+00  0.0000E+00  0.0000E+00  0.0000E+00  0.0000E+00  0.0000E+00
    -18.155  0.0000E+00  0.0000E+00  0.0000E+00  0.0000E+00  0.0000E+00  0.0000E+00  0.0000E+00  0.0000E+00  0.0000E+00
    -17.947  0.0000E+00  0.0000E+00  0.0000E+00  0.0000E+00  0.0000E+00  0.0000E+00  0.0000E+00  0.0000E+00  0.0000E+00
    -17.739  0.0000E+00  0.0000E+00  0.0000E+00  0.0000E+00  0.0000E+00  0.0000E+00  0.0000E+00  0.0000E+00  0.0000E+00
    -17.531  0.0000E+00  0.0000E+00  0.0000E+00  0.0000E+00  0.0000E+00  0.0000E+00  0.0000E+00  0.0000E+00  0.0000E+00
    -17.322  0.0000E+00  0.0000E+00  0.0000E+00  0.0000E+00  0.0000E+00  0.0000E+00  0.0000E+00  0.0000E+00  0.0000E+00
    -17.114  0.0000E+00  0.0000E+00  0.0000E+00  0.0000E+00  0.0000E+00  0.0000E+00  0.0000E+00  0.0000E+00  0.0000E+00
    -16.906  0.0000E+00  0.0000E+00  0.0000E+00  0.0000E+00  0.0000E+00  0.0000E+00  0.0000E+00  0.0000E+00  0.0000E+00
    -16.698  0.0000E+00  0.0000E+00  0.0000E+00  0.0000E+00  0.0000E+00  0.0000E+00  0.0000E+00  0.0000E+00  0.0000E+00
    -16.490  0.0000E+00  0.0000E+00  0.0000E+00  0.0000E+00  0.0000E+00  0.0000E+00  0.0000E+00  0.0000E+00  0.0000E+00
    -16.281  0.0000E+00  0.0000E+00  0.0000E+00  0.0000E+00  0.0000E+00  0.0000E+00  0.0000E+00  0.0000E+00  0.0000E+00
    -16.073  0.0000E+00  0.0000E+00  0.0000E+00  0.0000E+00  0.0000E+00  0.0000E+00  0.0000E+00  0.0000E+00  0.0000E+00
    -15.865  0.0000E+00  0.0000E+00  0.0000E+00  0.0000E+00  0.0000E+00  0.0000E+00  0.0000E+00  0.0000E+00  0.0000E+00
    -15.657  0.0000E+00  0.0000E+00  0.0000E+00  0.0000E+00  0.0000E+00  0.0000E+00  0.0000E+00  0.0000E+00  0.0000E+00
    -15.449  0.0000E+00  0.0000E+00  0.0000E+00  0.0000E+00  0.0000E+00  0.0000E+00  0.0000E+00  0.0000E+00  0.0000E+00
    -15.240  0.0000E+00  0.0000E+00  0.0000E+00  0.0000E+00  0.0000E+00  0.0000E+00  0.0000E+00  0.0000E+00  0.0000E+00
    -15.032  0.0000E+00  0.0000E+00  0.0000E+00  0.0000E+00  0.0000E+00  0.0000E+00  0.0000E+00  0.0000E+00  0.0000E+00