Automatically generated mesh
      24
Reciprocal lattice
    0.00000000000000    0.00000000000000    0.00000000000000             1
    0.25000000000000    0.00000000000000    0.00000000000000             4
    0.50000000000000    0.00000000000000    0.00000000000000             2
    0.25000000000000    0.25000000000000    0.00000000000000             2
    0.50000000000000    0.25000000000000    0.00000000000000             4
   -0.25000000000000    0.25000000000000   -0.00000000000000             2
    0.50000000000000    0.50000000000000    0.00000000000000             1
   -0.00000000000000    0.00000000000000    0.25000000000000             2
    0.25000000000000    0.00000000000000    0.25000000000000             4
    0.50000000000000   -0.00000000000000    0.25000000000000             4
   -0.25000000000000   -0.00000000000000    0.25000000000000             4
    0.25000000000000    0.25000000000000    0.25000000000000             2
    0.50000000000000    0.25000000000000    0.25000000000000             4
   -0.25000000000000    0.25000000000000    0.25000000000000             4
    0.50000000000000    0.50000000000000    0.25000000000000             2
   -0.25000000000000    0.50000000000000    0.25000000000000             4
   -0.25000000000000   -0.25000000000000    0.25000000000000             2
   -0.00000000000000    0.00000000000000    0.50000000000000             1
    0.25000000000000    0.00000000000000    0.50000000000000             4
    0.50000000000000    0.00000000000000    0.50000000000000             2
    0.25000000000000    0.25000000000000    0.50000000000000             2
    0.50000000000000    0.25000000000000    0.50000000000000             4
   -0.25000000000000    0.25000000000000    0.50000000000000             2
    0.50000000000000    0.50000000000000    0.50000000000000             1
Tetrahedra
        96    0.00260416666667
         4         1         2         4        12
         4         1         2         9        12
         4         1         8         9        12
         4         2         4         5        13
         4         2         3         5        13
         4         2         3        10        13
         4         2         4        12        13
         4         2         9        12        13
         4         2         9        10        13
         4         3         5         6        14
         4         2         3         6        14
         4         2         3        11        14
         4         3         5        13        14
         4         3        10        13        14
         4         3        10        11        14
         4         2         2         6         9
         4         1         2         2         9
         4         1         2         8         9
         4         2         6         9        14
         4         2         9        11        14
         4         2         8         9        11
         4         4         5         7        15
         4         4         5        13        15
         4         4        12        13        15
         4         5         5         7        16
         4         5         5         6        16
         4         5         6        14        16
         4         5         7        15        16
         4         5        13        15        16
         4         5        13        14        16
         4         3         5         6        10
         4         2         3         6        10
         4         2         6         9        10
         4         5         6        10        16
         4         6        10        14        16
         4         6         9        10        14
         4         4         5         7        17
         4         5         7        16        17
         4         7        15        16        17
         4         2         4         5        11
         4         2         3         5        11
         4         3         5        10        11
         4         4         5        11        17
         4         5        11        16        17
         4         5        10        11        16
         4         1         2         4         8
         4         2         4         8        11
         4         4         8        11        17
         4         8         9        12        21
         4         8         9        19        21
         4         8        18        19        21
         4         9        12        13        22
         4         9        10        13        22
         4         9        10        20        22
         4         9        12        21        22
         4         9        19        21        22
         4         9        19        20        22
         4        10        13        14        23
         4        10        11        14        23
         4        10        11        19        23
         4        10        13        22        23
         4        10        20        22        23
         4        10        19        20        23
         4         9        11        14        19
         4         8         9        11        19
         4         8        11        18        19
         4        11        14        19        23
         4        11        19        19        23
         4        11        18        19        19
         4        12        13        15        24
         4        12        13        22        24
         4        12        21        22        24
         4        13        15        16        22
         4        13        14        16        22
         4        13        14        22        23
         4        13        15        22        24
         4        13        22        22        24
         4        13        22        22        23
         4        10        14        16        20
         4         9        10        14        20
         4         9        14        19        20
         4        14        16        20        22
         4        14        20        22        23
         4        14        19        20        23
         4        15        16        17        21
         4        15        16        21        22
         4        15        21        22        24
         4        11        16        17        19
         4        10        11        16        19
         4        10        16        19        20
         4        16        17        19        21
         4        16        19        21        22
         4        16        19        20        22
         4         8        11        17        18
         4        11        17        18        19
         4        17        18        19        21
