       N       E                     dE             d eps       ncg     rms          rms(c)
DAV:   1    -0.163202954178E+03   -0.16320E+03   -0.60217E-05  2400   0.648E-02    0.247E-04
DAV:   2    -0.163202954186E+03   -0.80781E-08   -0.11343E-09  1448   0.373E-04
   1 F= -.16320295E+03 E0= -.16320295E+03  d E =-.163203E+03
       N       E                     dE             d eps       ncg     rms          rms(c)
DAV:   1    -0.163202951994E+03    0.21836E-05   -0.14833E-04  3216   0.102E-01    0.111E-02
DAV:   2    -0.163202954086E+03   -0.20917E-05   -0.11801E-05  3804   0.312E-02    0.937E-03
DAV:   3    -0.163202953719E+03    0.36744E-06   -0.13723E-06  4264   0.104E-02    0.556E-03
DAV:   4    -0.163202953537E+03    0.18204E-06   -0.41300E-07  4112   0.486E-03    0.270E-03
DAV:   5    -0.163202953459E+03    0.77458E-07   -0.13823E-07  3876   0.338E-03    0.102E-03
DAV:   6    -0.163202953440E+03    0.18990E-07   -0.62089E-08  3036   0.195E-03    0.551E-04
DAV:   7    -0.163202953428E+03    0.12371E-07   -0.12003E-08  1816   0.968E-04    0.384E-04
DAV:   8    -0.163202953420E+03    0.73396E-08   -0.10663E-08  1640   0.799E-04
   2 F= -.16320295E+03 E0= -.16320295E+03  d E =0.765694E-06
       N       E                     dE             d eps       ncg     rms          rms(c)
DAV:   1    -0.163202953171E+03    0.25625E-06   -0.37616E-05  3080   0.469E-02    0.595E-03
DAV:   2    -0.163202953743E+03   -0.57191E-06   -0.26810E-06  3756   0.138E-02    0.604E-03
DAV:   3    -0.163202953626E+03    0.11781E-06   -0.16754E-07  4544   0.384E-03    0.433E-03
DAV:   4    -0.163202953577E+03    0.48942E-07   -0.62670E-08  3436   0.202E-03    0.264E-03
DAV:   5    -0.163202953568E+03    0.81636E-08   -0.31477E-08  2528   0.147E-03
   3 F= -.16320295E+03 E0= -.16320295E+03  d E =-.148082E-06
       N       E                     dE             d eps       ncg     rms          rms(c)
DAV:   1    -0.163202952200E+03    0.13763E-05   -0.45788E-05  3152   0.667E-02    0.655E-03
DAV:   2    -0.163202953683E+03   -0.14831E-05   -0.72204E-06  3448   0.209E-02    0.647E-03
DAV:   3    -0.163202953788E+03   -0.10464E-06   -0.59873E-07  4332   0.588E-03    0.438E-03
DAV:   4    -0.163202953737E+03    0.51377E-07   -0.98368E-08  3464   0.261E-03    0.258E-03
DAV:   5    -0.163202953718E+03    0.18294E-07   -0.58888E-08  2832   0.200E-03    0.120E-03
DAV:   6    -0.163202953710E+03    0.79799E-08   -0.13826E-08  1764   0.101E-03
   4 F= -.16320295E+03 E0= -.16320295E+03  d E =-.141938E-06
       N       E                     dE             d eps       ncg     rms          rms(c)
DAV:   1    -0.163202954494E+03   -0.77578E-06   -0.57141E-05  3656   0.682E-02    0.111E-02
DAV:   2    -0.163202954452E+03    0.42119E-07   -0.24750E-06  3592   0.144E-02    0.717E-03
DAV:   3    -0.163202954003E+03    0.44883E-06   -0.61503E-07  4048   0.652E-03    0.348E-03
DAV:   4    -0.163202953957E+03    0.46473E-07   -0.35697E-07  3784   0.401E-03    0.158E-03
DAV:   5    -0.163202953975E+03   -0.18203E-07   -0.67263E-08  3240   0.210E-03    0.605E-04
DAV:   6    -0.163202953988E+03   -0.12886E-07   -0.13060E-08  1592   0.125E-03    0.495E-04
DAV:   7    -0.163202954001E+03   -0.13022E-07   -0.15105E-08  1600   0.749E-04    0.239E-04
DAV:   8    -0.163202954009E+03   -0.84729E-08   -0.48152E-09  1604   0.501E-04
   5 F= -.16320295E+03 E0= -.16320295E+03  d E =-.298920E-06
       N       E                     dE             d eps       ncg     rms          rms(c)
DAV:   1    -0.163202950212E+03    0.37889E-05   -0.14158E-04  3120   0.113E-01    0.124E-02
DAV:   2    -0.163202953811E+03   -0.35986E-05   -0.18682E-05  3440   0.352E-02    0.112E-02
DAV:   3    -0.163202953692E+03    0.11874E-06   -0.16279E-06  4088   0.101E-02    0.665E-03
DAV:   4    -0.163202953533E+03    0.15844E-06   -0.41355E-07  3568   0.479E-03    0.366E-03
DAV:   5    -0.163202953514E+03    0.19343E-07   -0.17879E-07  4024   0.334E-03    0.164E-03
DAV:   6    -0.163202953524E+03   -0.10059E-07   -0.38991E-08  2460   0.167E-03    0.836E-04
DAV:   7    -0.163202953532E+03   -0.73942E-08   -0.14390E-08  1756   0.960E-04
   6 F= -.16320295E+03 E0= -.16320295E+03  d E =0.477799E-06
       N       E                     dE             d eps       ncg     rms          rms(c)
DAV:   1    -0.163202951095E+03    0.24288E-05   -0.77862E-05  3224   0.902E-02    0.814E-03
DAV:   2    -0.163202953854E+03   -0.27590E-05   -0.13292E-05  3460   0.288E-02    0.853E-03
DAV:   3    -0.163202954134E+03   -0.27982E-06   -0.13651E-06  4344   0.840E-03    0.550E-03
DAV:   4    -0.163202954065E+03    0.69656E-07   -0.14926E-07  3600   0.319E-03    0.301E-03
DAV:   5    -0.163202954030E+03    0.34490E-07   -0.96857E-08  3816   0.273E-03    0.127E-03
DAV:   6    -0.163202954023E+03    0.69140E-08   -0.27362E-08  1924   0.140E-03
   7 F= -.16320295E+03 E0= -.16320295E+03  d E =-.491566E-06
