 vasp.5.4.4.18Apr17-6-g9f103f2a35 (build Apr 27 2017 15:58:20) complex          
  
 executed on       CrayXC-Intel16 date 2020.06.01  09:31:57
 running on  240 total cores
 distrk:  each k-point on   10 cores,   24 groups
 distr:  one band on NCORES_PER_BAND=  10 cores,    1 groups


--------------------------------------------------------------------------------------------------------


 INCAR:
 POTCAR:    PAW_PBE O 08Apr2002                   
 POTCAR:    PAW_PBE V_pv 07Sep2000                
 POTCAR:    PAW_PBE Bi_d 06Sep2000                

 ----------------------------------------------------------------------------- 
|                                                                             |
|           W    W    AA    RRRRR   N    N  II  N    N   GGGG   !!!           |
|           W    W   A  A   R    R  NN   N  II  NN   N  G    G  !!!           |
|           W    W  A    A  R    R  N N  N  II  N N  N  G       !!!           |
|           W WW W  AAAAAA  RRRRR   N  N N  II  N  N N  G  GGG   !            |
|           WW  WW  A    A  R   R   N   NN  II  N   NN  G    G                |
|           W    W  A    A  R    R  N    N  II  N    N   GGGG   !!!           |
|                                                                             |
|      You have enabled k-point parallelism (KPAR>1).                         |
|      This developmental code was originally  written by Paul Kent at ORNL,  |
|      and carefully double checked in Vienna.                                |
|      GW as well as linear response parallelism added by Martijn Marsman     |
|      and Georg Kresse.                                                      |
|      Carefully verify results versus KPAR=1.                                |
|      Report problems to Paul Kent and Vienna.                               |
|                                                                             |
 ----------------------------------------------------------------------------- 

 POTCAR:    PAW_PBE O 08Apr2002                   
   VRHFIN =O: s2p4                                                              
   LEXCH  = PE                                                                  
   EATOM  =   432.3788 eV,   31.7789 Ry                                         
                                                                                
   TITEL  = PAW_PBE O 08Apr2002                                                 
   LULTRA =        F    use ultrasoft PP ?                                      
   IUNSCR =        1    unscreen: 0-lin 1-nonlin 2-no                           
   RPACOR =    1.200    partial core radius                                     
   POMASS =   16.000; ZVAL   =    6.000    mass and valenz                      
   RCORE  =    1.520    outmost cutoff radius                                   
   RWIGS  =    1.550; RWIGS  =    0.820    wigner-seitz radius (au A)           
   ENMAX  =  400.000; ENMIN  =  300.000 eV                                      
   ICORE  =        2    local potential                                         
   LCOR   =        T    correct aug charges                                     
   LPAW   =        T    paw PP                                                  
   EAUG   =  605.392                                                            
   DEXC   =    0.000                                                            
   RMAX   =    1.553    core radius for proj-oper                               
   RAUG   =    1.300    factor for augmentation sphere                          
   RDEP   =    1.550    radius for radial grids                                 
   RDEPT  =    1.329    core radius for aug-charge                              
                                                                                
   Atomic configuration                                                         
    4 entries                                                                   
     n  l   j            E        occ.                                          
     1  0  0.50      -514.6923   2.0000                                         
     2  0  0.50       -23.9615   2.0000                                         
     2  1  0.50        -9.0305   4.0000                                         
     3  2  1.50        -9.5241   0.0000                                         
   Description                                                                  
     l       E           TYP  RCUT    TYP  RCUT                                 
     0    -23.9615318     23  1.200                                             
     0     -9.5240782     23  1.200                                             
     1     -9.0304911     23  1.520                                             
     1      8.1634956     23  1.520                                             
     2     -9.5240782      7  1.500                                             
  local pseudopotential read in
  partial core-charges read in
  partial kinetic energy density read in
  kinetic energy density of atom read in
  atomic valenz-charges read in
  non local Contribution for L=           0  read in
    real space projection operators read in
  non local Contribution for L=           0  read in
    real space projection operators read in
  non local Contribution for L=           1  read in
    real space projection operators read in
  non local Contribution for L=           1  read in
    real space projection operators read in
    PAW grid and wavefunctions read in
 
   number of l-projection  operators is LMAX  =           4
   number of lm-projection operators is LMMAX =           8
 
 POTCAR:    PAW_PBE V_pv 07Sep2000                
   VRHFIN =V: p6 d4 s1                                                          
   LEXCH  = PE                                                                  
   EATOM  =  1321.6206 eV,   97.1364 Ry                                         
                                                                                
   TITEL  = PAW_PBE V_pv 07Sep2000                                              
   LULTRA =        F    use ultrasoft PP ?                                      
   IUNSCR =        1    unscreen: 0-lin 1-nonlin 2-no                           
   RPACOR =    1.700    partial core radius                                     
   POMASS =   50.941; ZVAL   =   11.000    mass and valenz                      
   RCORE  =    2.300    outmost cutoff radius                                   
   RWIGS  =    2.300; RWIGS  =    1.217    wigner-seitz radius (au A)           
   ENMAX  =  263.673; ENMIN  =  197.755 eV                                      
   RCLOC  =    1.779    cutoff for local pot                                    
   LCOR   =        T    correct aug charges                                     
   LPAW   =        T    paw PP                                                  
   EAUG   =  598.473                                                            
   DEXC   =    0.000                                                            
   RMAX   =    2.359    core radius for proj-oper                               
   RAUG   =    1.300    factor for augmentation sphere                          
   RDEP   =    2.430    radius for radial grids                                 
   RDEPT  =    1.700    core radius for aug-charge                              
                                                                                
   Atomic configuration                                                         
    8 entries                                                                   
     n  l   j            E        occ.                                          
     1  0  0.50     -5360.7193   2.0000                                         
     2  0  0.50      -598.4546   2.0000                                         
     2  1  1.50      -499.0155   6.0000                                         
     3  0  0.50       -66.5711   2.0000                                         
     3  1  1.50       -40.5282   6.0000                                         
     3  2  2.50        -2.4291   4.0000                                         
     4  0  0.50        -3.8743   1.0000                                         
     4  3  2.50        -1.3606   0.0000                                         
   Description                                                                  
     l       E           TYP  RCUT    TYP  RCUT                                 
     1    -40.5282431     23  2.000                                             
     1      5.4423304     23  2.000                                             
     2     -2.4290905     23  2.300                                             
     2     -1.0472488     23  2.300                                             
     0     -3.8742754     23  2.300                                             
     0     27.2116520     23  2.300                                             
  local pseudopotential read in
  partial core-charges read in
  partial kinetic energy density read in
  atomic valenz-charges read in
  non local Contribution for L=           1  read in
    real space projection operators read in
  non local Contribution for L=           1  read in
    real space projection operators read in
  non local Contribution for L=           2  read in
    real space projection operators read in
  non local Contribution for L=           2  read in
    real space projection operators read in
  non local Contribution for L=           0  read in
    real space projection operators read in
  non local Contribution for L=           0  read in
    real space projection operators read in
    PAW grid and wavefunctions read in
 
   number of l-projection  operators is LMAX  =           6
   number of lm-projection operators is LMMAX =          18
 
 POTCAR:    PAW_PBE Bi_d 06Sep2000                
   VRHFIN =Bi:                                                                  
   LEXCH  = PE                                                                  
   EATOM  =  1959.2045 eV,  143.9975 Ry                                         
                                                                                
   TITEL  = PAW_PBE Bi_d 06Sep2000                                              
   LULTRA =        F    use ultrasoft PP ?                                      
   IUNSCR =        1    unscreen: 0-lin 1-nonlin 2-no                           
   RPACOR =    2.200    partial core radius                                     
   POMASS =  208.980; ZVAL   =   15.000    mass and valenz                      
   RCORE  =    2.500    outmost cutoff radius                                   
   RWIGS  =    3.090; RWIGS  =    1.635    wigner-seitz radius (au A)           
   ENMAX  =  242.839; ENMIN  =  182.129 eV                                      
   ICORE  =        3    local potential                                         
   LCOR   =        T    correct aug charges                                     
   LPAW   =        T    paw PP                                                  
   EAUG   =  442.899                                                            
   DEXC   =    0.000                                                            
   RMAX   =    2.551    core radius for proj-oper                               
   RAUG   =    1.300    factor for augmentation sphere                          
   RDEP   =    2.650    radius for radial grids                                 
   RDEPT  =    2.039    core radius for aug-charge                              
                                                                                
   Atomic configuration                                                         
   16 entries                                                                   
     n  l   j            E        occ.                                          
     1  0  0.50    -90639.6581   2.0000                                         
     2  0  0.50    -16282.4666   2.0000                                         
     2  1  1.50    -13922.8286   6.0000                                         
     3  0  0.50     -3930.4763   2.0000                                         
     3  1  1.50     -3256.7013   6.0000                                         
     3  2  2.50     -2581.6168  10.0000                                         
     4  0  0.50      -902.2614   2.0000                                         
     4  1  1.50      -681.5915   6.0000                                         
     4  2  2.50      -429.8249  10.0000                                         
     4  3  3.50      -152.6004  14.0000                                         
     5  0  0.50      -157.7156   2.0000                                         
     5  1  1.50       -95.8054   6.0000                                         
     5  2  2.50       -27.0806  10.0000                                         
     6  0  0.50       -14.4732   2.0000                                         
     6  1  1.50        -4.5702   3.0000                                         
     5  3  2.50        -2.7212   0.0000                                         
   Description                                                                  
     l       E           TYP  RCUT    TYP  RCUT                                 
     2    -27.0805982     23  2.500                                             
     2     -1.3605826     23  2.500                                             
     0    -14.4732271     23  2.500                                             
     0      6.8029130     23  2.500                                             
     1     -4.5701651     23  2.500                                             
     1     13.6058260     23  2.500                                             
     3     -1.3605826      7  2.500                                             
  local pseudopotential read in
  partial core-charges read in
  partial kinetic energy density read in
  atomic valenz-charges read in
  non local Contribution for L=           2  read in
    real space projection operators read in
  non local Contribution for L=           2  read in
    real space projection operators read in
  non local Contribution for L=           0  read in
    real space projection operators read in
  non local Contribution for L=           0  read in
    real space projection operators read in
  non local Contribution for L=           1  read in
    real space projection operators read in
  non local Contribution for L=           1  read in
    real space projection operators read in
    PAW grid and wavefunctions read in
 
   number of l-projection  operators is LMAX  =           6
   number of lm-projection operators is LMMAX =          18
 
 WARNING: PSMAXN for non-local potential too small
          PSMAXN should be >   15.7905836300310       NTYP=           3

 ----------------------------------------------------------------------------- 
|                                                                             |
|  ADVICE TO THIS USER RUNNING 'VASP/VAMP'   (HEAR YOUR MASTER'S VOICE ...):  |
|                                                                             |
|      You enforced a specific xc-type in the INCAR file,                     |
|      a different type was found on the POTCAR file                          |
|          I HOPE YOU KNOW, WHAT YOU ARE  DOING                               |
|                                                                             |
 ----------------------------------------------------------------------------- 

  PAW_PBE O 08Apr2002                   :
 energy of atom  1       EATOM= -432.3788
 kinetic energy error for atom=    0.0024 (will be added to EATOM!!)
  PAW_PBE V_pv 07Sep2000                :
 energy of atom  2       EATOM=-1321.6206
 kinetic energy error for atom=    0.0007 (will be added to EATOM!!)
  PAW_PBE Bi_d 06Sep2000                :
 energy of atom  3       EATOM=-1959.2045
 kinetic energy error for atom=    0.0004 (will be added to EATOM!!)
 
 
 POSCAR: New structure                           
  positions in direct lattice
  velocities in cartesian coordinates
 exchange correlation table for  LEXCH =       14
   RHO(1)=    0.500       N(1)  =     2000
   RHO(2)=  100.500       N(2)  =     4000
 


--------------------------------------------------------------------------------------------------------


 ion  position               nearest neighbor table
   1  0.299  0.719  0.637-   9 1.74  12 2.29  11 2.33
   2  0.933  0.827  0.885-  10 1.65  12 2.49  11 2.63
   3  0.781  0.201  0.863-   9 1.74  12 2.29  11 2.33
   4  0.673  0.567  0.615-  10 1.65  12 2.49  11 2.63
   5  0.701  0.281  0.363-  10 1.74  11 2.29  12 2.33
   6  0.067  0.173  0.115-   9 1.65  11 2.49  12 2.63
   7  0.219  0.799  0.137-  10 1.74  11 2.29  12 2.33
   8  0.327  0.433  0.385-   9 1.65  11 2.49  12 2.63
   9  0.119  0.381  0.750-   6 1.65   8 1.65   3 1.74   1 1.74
  10  0.881  0.619  0.250-   2 1.65   4 1.65   5 1.74   7 1.74
  11  0.615  0.885  0.750-   7 2.29   5 2.29   3 2.33   1 2.33   8 2.49   6 2.49   4 2.63   2 2.63
                            12 3.69  12 3.69
  12  0.385  0.115  0.250-   1 2.29   3 2.29   5 2.33   7 2.33   4 2.49   2 2.49   6 2.63   8 2.63
                            11 3.69  11 3.69
 
  LATTYP: Found a base centered monoclinic cell.
 ALAT       =     7.1108576388
 B/A-ratio  =     1.6188005399
 C/A-ratio  =     2.5669051304
 COS(beta)  =    -0.5152239205
  
  Lattice vectors:
  
 A1 = (  -3.0181737473,   6.0545571262,   0.0128828672)
 A2 = (   6.7651247354,  -0.0110489746,   0.0128828672)
 A3 = (  -9.4221989706, -15.1971927223,  -3.6654804805)


Analysis of symmetry for initial positions (statically):
=====================================================================
 Subroutine PRICEL returns:
 Original cell was already a primitive cell.
 

 Routine SETGRP: Setting up the symmetry group for a 
 base centered monoclinic supercell.


 Subroutine GETGRP returns: Found  4 space group operations
 (whereof  2 operations were pure point group operations)
 out of a pool of  4 trial point group operations.


The static configuration has the point symmetry S_2 .
 The point group associated with its full space group is C_2h.


Analysis of symmetry for dynamics (positions and initial velocities):
=====================================================================
 Subroutine PRICEL returns:
 Original cell was already a primitive cell.
 

 Routine SETGRP: Setting up the symmetry group for a 
 base centered monoclinic supercell.


 Subroutine GETGRP returns: Found  4 space group operations
 (whereof  2 operations were pure point group operations)
 out of a pool of  4 trial point group operations.


The dynamic configuration has the point symmetry S_2 .
 The point group associated with its full space group is C_2h.


 Subroutine INISYM returns: Found  4 space group operations
 (whereof  2 operations are pure point group operations),
 and found     1 'primitive' translations

 
 
 KPOINTS: Automatic generation                    

Automatic generation of k-mesh.
Space group operators:
 irot       det(A)        alpha          n_x          n_y          n_z        tau_x        tau_y        tau_z
    1     1.000000     0.000000     1.000000     0.000000     0.000000     0.000000     0.000000     0.000000
    2    -1.000000     0.000000     1.000000     0.000000     0.000000     0.000000     0.000000     0.000000
    3     1.000000   180.000000     0.849904    -0.526937     0.000000    -0.500000    -0.500000    -0.500000
    4    -1.000000   180.000000     0.849904    -0.526937     0.000000    -0.500000    -0.500000    -0.500000
 
 Subroutine IBZKPT returns following result:
 ===========================================
 
 Found     24 irreducible k-points:
 
 Following reciprocal coordinates:
            Coordinates               Weight
  0.000000  0.000000  0.000000      1.000000
  0.250000  0.000000  0.000000      4.000000
  0.500000  0.000000  0.000000      2.000000
  0.250000  0.250000  0.000000      2.000000
  0.500000  0.250000  0.000000      4.000000
 -0.250000  0.250000 -0.000000      2.000000
  0.500000  0.500000  0.000000      1.000000
 -0.000000  0.000000  0.250000      2.000000
  0.250000  0.000000  0.250000      4.000000
  0.500000 -0.000000  0.250000      4.000000
 -0.250000 -0.000000  0.250000      4.000000
  0.250000  0.250000  0.250000      2.000000
  0.500000  0.250000  0.250000      4.000000
 -0.250000  0.250000  0.250000      4.000000
  0.500000  0.500000  0.250000      2.000000
 -0.250000  0.500000  0.250000      4.000000
 -0.250000 -0.250000  0.250000      2.000000
 -0.000000  0.000000  0.500000      1.000000
  0.250000  0.000000  0.500000      4.000000
  0.500000  0.000000  0.500000      2.000000
  0.250000  0.250000  0.500000      2.000000
  0.500000  0.250000  0.500000      4.000000
 -0.250000  0.250000  0.500000      2.000000
  0.500000  0.500000  0.500000      1.000000
 
 Following cartesian coordinates:
            Coordinates               Weight
  0.000000  0.000000  0.000000      1.000000
  0.037053  0.018547 -0.035731      4.000000
  0.074105  0.037093 -0.071463      2.000000
  0.037188  0.059981 -0.071463      2.000000
  0.074241  0.078528 -0.107194      4.000000
 -0.036917  0.022888 -0.000000      2.000000
  0.074377  0.119963 -0.142926      1.000000
 -0.000133 -0.000214  0.069431      2.000000
  0.036920  0.018333  0.033700      4.000000
  0.073973  0.036879 -0.002032      4.000000
 -0.037185 -0.018760  0.105163      4.000000
  0.037056  0.059768 -0.002032      2.000000
  0.074108  0.078314 -0.037763      4.000000
 -0.037049  0.022674  0.069431      4.000000
  0.074244  0.119749 -0.073495      2.000000
 -0.036914  0.064109  0.033700      4.000000
 -0.037321 -0.060195  0.140894      2.000000
 -0.000265 -0.000428  0.138862      1.000000
  0.036787  0.018119  0.103131      4.000000
  0.073840  0.036666  0.067399      2.000000
  0.036923  0.059554  0.067399      2.000000
  0.073976  0.078100  0.031668      4.000000
 -0.037182  0.022461  0.138862      2.000000
  0.074111  0.119535 -0.004063      1.000000
 
 TETIRR: Found     96 inequivalent tetrahedra from      384
 
 Subroutine IBZKPT_HF returns following result:
 ==============================================
 
 Found     64 k-points in 1st BZ
 the following     64 k-points will be used (e.g. in the exchange kernel)
 Following reciprocal coordinates:   # in IRBZ
  0.000000  0.000000  0.000000    0.01562500   1 t-inv F
  0.250000  0.000000  0.000000    0.01562500   2 t-inv F
  0.500000  0.000000  0.000000    0.01562500   3 t-inv F
  0.250000  0.250000  0.000000    0.01562500   4 t-inv F
  0.500000  0.250000  0.000000    0.01562500   5 t-inv F
 -0.250000  0.250000 -0.000000    0.01562500   6 t-inv F
  0.500000  0.500000  0.000000    0.01562500   7 t-inv F
 -0.000000  0.000000  0.250000    0.01562500   8 t-inv F
  0.250000  0.000000  0.250000    0.01562500   9 t-inv F
  0.500000 -0.000000  0.250000    0.01562500  10 t-inv F
 -0.250000 -0.000000  0.250000    0.01562500  11 t-inv F
  0.250000  0.250000  0.250000    0.01562500  12 t-inv F
  0.500000  0.250000  0.250000    0.01562500  13 t-inv F
 -0.250000  0.250000  0.250000    0.01562500  14 t-inv F
  0.500000  0.500000  0.250000    0.01562500  15 t-inv F
 -0.250000  0.500000  0.250000    0.01562500  16 t-inv F
 -0.250000 -0.250000  0.250000    0.01562500  17 t-inv F
 -0.000000  0.000000  0.500000    0.01562500  18 t-inv F
  0.250000  0.000000  0.500000    0.01562500  19 t-inv F
  0.500000  0.000000  0.500000    0.01562500  20 t-inv F
  0.250000  0.250000  0.500000    0.01562500  21 t-inv F
  0.500000  0.250000  0.500000    0.01562500  22 t-inv F
 -0.250000  0.250000  0.500000    0.01562500  23 t-inv F
  0.500000  0.500000  0.500000    0.01562500  24 t-inv F
 -0.250000 -0.000000 -0.000000    0.01562500   2 t-inv F
 -0.000000 -0.250000 -0.000000    0.01562500   2 t-inv F
  0.000000  0.250000  0.000000    0.01562500   2 t-inv F
 -0.000000 -0.500000 -0.000000    0.01562500   3 t-inv F
 -0.250000 -0.250000  0.000000    0.01562500   4 t-inv F
 -0.500000 -0.250000 -0.000000    0.01562500   5 t-inv F
 -0.250000 -0.500000 -0.000000    0.01562500   5 t-inv F
  0.250000  0.500000  0.000000    0.01562500   5 t-inv F
  0.250000 -0.250000  0.000000    0.01562500   6 t-inv F
  0.000000  0.000000 -0.250000    0.01562500   8 t-inv F
 -0.250000 -0.000000 -0.250000    0.01562500   9 t-inv F
 -0.000000 -0.250000 -0.250000    0.01562500   9 t-inv F
  0.000000  0.250000  0.250000    0.01562500   9 t-inv F
 -0.500000  0.000000 -0.250000    0.01562500  10 t-inv F
  0.000000 -0.500000 -0.250000    0.01562500  10 t-inv F
 -0.000000  0.500000  0.250000    0.01562500  10 t-inv F
  0.250000  0.000000 -0.250000    0.01562500  11 t-inv F
  0.000000  0.250000 -0.250000    0.01562500  11 t-inv F
 -0.000000 -0.250000  0.250000    0.01562500  11 t-inv F
 -0.250000 -0.250000 -0.250000    0.01562500  12 t-inv F
 -0.500000 -0.250000 -0.250000    0.01562500  13 t-inv F
 -0.250000 -0.500000 -0.250000    0.01562500  13 t-inv F
  0.250000  0.500000  0.250000    0.01562500  13 t-inv F
  0.250000 -0.250000 -0.250000    0.01562500  14 t-inv F
 -0.250000  0.250000 -0.250000    0.01562500  14 t-inv F
  0.250000 -0.250000  0.250000    0.01562500  14 t-inv F
 -0.500000 -0.500000 -0.250000    0.01562500  15 t-inv F
  0.250000 -0.500000 -0.250000    0.01562500  16 t-inv F
 -0.500000  0.250000 -0.250000    0.01562500  16 t-inv F
  0.500000 -0.250000  0.250000    0.01562500  16 t-inv F
  0.250000  0.250000 -0.250000    0.01562500  17 t-inv F
 -0.250000 -0.000000 -0.500000    0.01562500  19 t-inv F
 -0.000000 -0.250000 -0.500000    0.01562500  19 t-inv F
  0.000000  0.250000  0.500000    0.01562500  19 t-inv F
 -0.000000 -0.500000 -0.500000    0.01562500  20 t-inv F
 -0.250000 -0.250000 -0.500000    0.01562500  21 t-inv F
 -0.500000 -0.250000 -0.500000    0.01562500  22 t-inv F
 -0.250000 -0.500000 -0.500000    0.01562500  22 t-inv F
  0.250000  0.500000  0.500000    0.01562500  22 t-inv F
  0.250000 -0.250000 -0.500000    0.01562500  23 t-inv F


--------------------------------------------------------------------------------------------------------




 Dimension of arrays:
   k-points           NKPTS =     24   k-points in BZ     NKDIM =     64   number of bands    NBANDS=     60
   number of dos      NEDOS =    301   number of ions     NIONS =     12
   non local maximal  LDIM  =      6   non local SUM 2l+1 LMDIM =     18
   total plane-waves  NPLWV = 264600
   max r-space proj   IRMAX =      1   max aug-charges    IRDMAX= 634947
   dimension x,y,z NGX =    70 NGY =   70 NGZ =   54
   dimension x,y,z NGXF=   140 NGYF=  140 NGZF=  108
   support grid    NGXF=   280 NGYF=  280 NGZF=  216
   ions per type =               8   2   2
   NGX,Y,Z   is equivalent  to a cutoff of  17.20, 17.20, 17.45 a.u.
   NGXF,Y,Z  is equivalent  to a cutoff of  34.40, 34.40, 34.91 a.u.

 SYSTEM =  ZnO_Bulk                                
 POSCAR =  New structure                           

 Startparameter for this run:
   NWRITE =      2    write-flag & timer
   PREC   = accura    normal or accurate (medium, high low for compatibility)
   ISTART =      1    job   : 0-new  1-cont  2-samecut
   ICHARG =      0    charge: 1-file 2-atom 10-const
   ISPIN  =      1    spin polarized calculation?
   LNONCOLLINEAR =      F non collinear calculations
   LSORBIT =      F    spin-orbit coupling
   INIWAV =      1    electr: 0-lowe 1-rand  2-diag
   LASPH  =      T    aspherical Exc in radial PAW
   METAGGA=      F    non-selfconsistent MetaGGA calc.

 Electronic Relaxation 1
   ENCUT  =  950.0 eV  69.82 Ry    8.36 a.u.  17.00 17.00 12.93*2*pi/ulx,y,z
   ENINI  =  950.0     initial cutoff
   ENAUG  =  605.4 eV  augmentation charge cutoff
   NELM   =    200;   NELMIN=  2; NELMDL=  0     # of ELM steps 
   EDIFF  = 0.1E-07   stopping-criterion for ELM
   LREAL  =      F    real-space projection
   NLSPLINE    = F    spline interpolate recip. space projectors
   LCOMPAT=      F    compatible to vasp.4.4
   GGA_COMPAT  = T    GGA compatible to vasp.4.4-vasp.4.6
   LMAXPAW     = -100 max onsite density
   LMAXMIX     =    2 max onsite mixed and CHGCAR
   VOSKOWN=      0    Vosko Wilk Nusair interpolation
   ROPT   =    0.00000   0.00000   0.00000
 Ionic relaxation
   EDIFFG = -.4E-03   stopping-criterion for IOM
   NSW    =    480    number of steps for IOM
   NBLOCK =      1;   KBLOCK =     40    inner block; outer block 
   IBRION =      1    ionic relax: 0-MD 1-quasi-New 2-CG
   NFREE  =      0    steps in history (QN), initial steepest desc. (CG)
   ISIF   =      3    stress and relaxation
   IWAVPR =     11    prediction:  0-non 1-charg 2-wave 3-comb
   ISYM   =      1    0-nonsym 1-usesym 2-fastsym
   LCORR  =      T    Harris-Foulkes like correction to forces

   POTIM  = 0.5000    time-step for ionic-motion
   TEIN   =    0.0    initial temperature
   TEBEG  =    0.0;   TEEND  =   0.0 temperature during run
   SMASS  =  -3.00    Nose mass-parameter (am)
   estimated Nose-frequenzy (Omega)   =  0.10E-29 period in steps =****** mass=  -0.105E-26a.u.
   SCALEE = 1.0000    scale energy and forces
   NPACO  =    256;   APACO  = 16.0  distance and # of slots for P.C.
   PSTRESS=    0.0 pullay stress

  Mass of Ions in am
   POMASS =  16.00 50.94208.98
  Ionic Valenz
   ZVAL   =   6.00 11.00 15.00
  Atomic Wigner-Seitz radii
   RWIGS  =  -1.00 -1.00 -1.00
  virtual crystal weights 
   VCA    =   1.00  1.00  1.00
   NELECT =     100.0000    total number of electrons
   NUPDOWN=      -1.0000    fix difference up-down

 DOS related values:
   EMIN   =  10.00;   EMAX   =-10.00  energy-range for DOS
   EFERMI =   0.00
   ISMEAR =    -5;   SIGMA  =   0.01  broadening in eV -4-tet -1-fermi 0-gaus

 Electronic relaxation 2 (details)
   IALGO  =     38    algorithm
   LDIAG  =      T    sub-space diagonalisation (order eigenvalues)
   LSUBROT=      F    optimize rotation matrix (better conditioning)
   TURBO    =      0    0=normal 1=particle mesh
   IRESTART =      0    0=no restart 2=restart with 2 vectors
   NREBOOT  =      0    no. of reboots
   NMIN     =      0    reboot dimension
   EREF     =   0.00    reference energy to select bands
   IMIX   =      1    mixing-type and parameters
     AMIX     =   0.40;   BMIX     =  1.00
     AMIX_MAG =   1.60;   BMIX_MAG =  1.00
     AMIN     =   0.10
     WC   =   100.;   INIMIX=   1;  MIXPRE=   1;  MAXMIX= -45

 Intra band minimization:
   WEIMIN = 0.0010     energy-eigenvalue tresh-hold
   EBREAK =  0.42E-10  absolut break condition
   DEPER  =   0.30     relativ break condition  

   TIME   =   0.30     timestep for ELM

  volume/ion in A,a.u.               =      12.28        82.87
  Fermi-wavevector in a.u.,A,eV,Ry     =   1.438616  2.718590 28.158824  2.069615
  Thomas-Fermi vector in A             =   2.557563
 
 Write flags
   LWAVE        =      T    write WAVECAR
   LDOWNSAMPLE  =      F    k-point downsampling of WAVECAR
   LCHARG       =      F    write CHGCAR
   LVTOT        =      F    write LOCPOT, total local potential
   LVHAR        =      F    write LOCPOT, Hartree potential only
   LELF         =      F    write electronic localiz. function (ELF)
   LORBIT       =     11    0 simple, 1 ext, 2 COOP (PROOUT), +10 PAW based schemes


 Dipole corrections
   LMONO  =      F    monopole corrections only (constant potential shift)
   LDIPOL =      F    correct potential (dipole corrections)
   IDIPOL =      0    1-x, 2-y, 3-z, 4-all directions 
   EPSILON=  1.0000000 bulk dielectric constant

 Exchange correlation treatment:
   GGA     =    PS    GGA type
   LEXCH   =    14    internal setting for exchange type
   VOSKOWN=      0    Vosko Wilk Nusair interpolation
   EXXOEP  =     0    0=HF, 1=EXX-LHF (local Hartree Fock) 2=EXX OEP
   LHFCALC =     T    Hartree Fock is set to
   LSYMGRAD=     F    symmetrize gradient (conserves proper symmetry)
   PRECFOCK=fast      Normal, Fast or Accurate (Low or Medium for compatibility)
   LRHFCALC=     F    long range Hartree Fock
   LRSCOR  =     F    long range correlation only (use DFT for short range part)
   LTHOMAS =     F    Thomas Fermi screening in HF
   LMODELHF=     F    short range full HF, long range fraction AEXX
   ENCUT4O =  -1.0   cutoff for four orbital integrals eV
   LMAXFOCK=     4    L truncation for augmentation on plane wave grid
   LMAXFOCKAE=  -1    L truncation for all-electron charge restoration on plane wave grid
   NMAXFOCKAE=   1    number of basis functions for all-electron charge restoration
   LFOCKAEDFT=     F  apply the AE augmentation even for DFT
   NKREDX  =     1    reduce k-point grid by
   NKREDY  =     1    reduce k-point grid by
   NKREDZ  =     1    reduce k-point grid by
   SHIFTRED=     F    shift reduced grid of Gamma
   HFKIDENT=     F    idential grid for each k-point
   ODDONLY =     F    use only odd q-grid points
   EVENONLY=     F    use only even q-grid points
   HFALPHA =   -1.0000 decay constant for conv. correction
   MCALPHA =    0.0000 extent of test-charge in conv. correction in multipole expansion
   AEXX    =    0.6000 exact exchange contribution
   HFSCREEN=    0.0000 screening length (either q_TF or 0.3 A-1)
   HFSCREENC=   0.0000 screening length for correlation (either q_TF or 0.3 A-1)
   HFRCUT  =    0.0000 spherical cutoff for potential kernel
   ALDAX   =    0.4000 LDA exchange part
   AGGAX   =    0.4000 GGA exchange part
   ALDAC   =    1.0000 LDA correlation
   AGGAC   =    1.0000 GGA correlation
   ENCUTFOCK=  -1.0 apply spherical cutoff to Coloumb kernel
   NBANDSGWLOW=     1    first orbital included in HF term
   NBLOCK_FOCK=    64    blocking factor in FOCK_ACC
 Linear response parameters
   LEPSILON=     F    determine dielectric tensor
   LRPA    =     F    only Hartree local field effects (RPA)
   LNABLA  =     F    use nabla operator in PAW spheres
   LVEL    =     F    velocity operator in full k-point grid
   LINTERFAST=   F  fast interpolation
   KINTER  =     0    interpolate to denser k-point grid
   CSHIFT  =0.1000    complex shift for real part using Kramers Kronig
   OMEGAMAX=  -1.0    maximum frequency
   DEG_THRESHOLD= 0.2000000E-02 threshold for treating states as degnerate
   RTIME   =   -0.100 relaxation time in fs
  (WPLASMAI=    0.000 imaginary part of plasma frequency in eV, 0.658/RTIME)
   DFIELD  = 0.0000000 0.0000000 0.0000000 field for delta impulse in time
 
 Orbital magnetization related:
   ORBITALMAG=     F  switch on orbital magnetization
   LCHIMAG   =     F  perturbation theory with respect to B field
   DQ        =  0.001000  dq finite difference perturbation B field
   LLRAUG    =     F  two centre corrections for induced B field



--------------------------------------------------------------------------------------------------------


 quasi-Newton-method for relaxation of ions
 charge density and potential will be updated during run
 non-spin polarized calculation
 Variant of blocked Davidson
 Davidson routine will perform the subspace rotation
 perform sub-space diagonalisation
    after iterative eigenvector-optimisation
 Kerker-like  mixing scheme
 using additional bands           10
 reciprocal scheme for non local part
 use partial core corrections
 calculate Harris-corrections to forces 
   (improved forces if not selfconsistent)
 use gradient corrections 
 use of overlap-Matrix (Vanderbilt PP)
 Fermi weights with tetrahedron method with Bloechl corrections


--------------------------------------------------------------------------------------------------------


  energy-cutoff  :      950.00
  volume of cell :      147.36
      direct lattice vectors                 reciprocal lattice vectors
     6.765124735 -0.011048975  0.012882867     0.148210272  0.074186375 -0.142925684
    -3.018173747  6.054557126  0.012882867     0.000542864  0.165739579 -0.142925684
     1.928296995  3.110176419  3.613949012    -0.000530269 -0.000855279  0.277724611

  length of vectors
     6.765146025  6.765146024  5.143165768     0.218855327  0.218855327  0.277726435


 
 old parameters found on file WAVECAR:
  energy-cutoff  :      950.00
  volume of cell :      147.35
      direct lattice vectors                 reciprocal lattice vectors
     6.764773621 -0.010941654  0.012837960     0.148215840  0.074185188 -0.142927576
    -3.017921490  6.054290359  0.012837960     0.000539325  0.165744039 -0.142927576
     1.928222237  3.110055841  3.613810368    -0.000528449 -0.000852342  0.277731728

  length of vectors

 
 k-points in units of 2pi/SCALE and weight: Automatic generation                    
   0.00000000  0.00000000  0.00000000       0.016
   0.03705257  0.01854659 -0.03573142       0.062
   0.07410514  0.03709319 -0.07146284       0.031
   0.03718828  0.05998149 -0.07146284       0.031
   0.07424085  0.07852808 -0.10719426       0.062
  -0.03691685  0.02288830 -0.00000000       0.031
   0.07437657  0.11996298 -0.14292568       0.016
  -0.00013257 -0.00021382  0.06943115       0.031
   0.03692000  0.01833277  0.03369973       0.062
   0.07397257  0.03687937 -0.00203169       0.062
  -0.03718514 -0.01876041  0.10516257       0.062
   0.03705572  0.05976767 -0.00203169       0.031
   0.07410828  0.07831426 -0.03776311       0.062
  -0.03704942  0.02267448  0.06943115       0.062
   0.07424400  0.11974916 -0.07349453       0.031
  -0.03691370  0.06410938  0.03369973       0.062
  -0.03732085 -0.06019531  0.14089399       0.031
  -0.00026513 -0.00042764  0.13886231       0.016
   0.03678743  0.01811895  0.10313088       0.062
   0.07384000  0.03666555  0.06739946       0.031
   0.03692315  0.05955385  0.06739946       0.031
   0.07397572  0.07810044  0.03166804       0.062
  -0.03718199  0.02246066  0.13886231       0.031
   0.07411143  0.11953534 -0.00406338       0.016
 
 k-points in reciprocal lattice and weights: Automatic generation                    
   0.00000000  0.00000000  0.00000000       0.016
   0.25000000  0.00000000  0.00000000       0.062
   0.50000000  0.00000000  0.00000000       0.031
   0.25000000  0.25000000  0.00000000       0.031
   0.50000000  0.25000000  0.00000000       0.062
  -0.25000000  0.25000000 -0.00000000       0.031
   0.50000000  0.50000000  0.00000000       0.016
  -0.00000000  0.00000000  0.25000000       0.031
   0.25000000  0.00000000  0.25000000       0.062
   0.50000000 -0.00000000  0.25000000       0.062
  -0.25000000 -0.00000000  0.25000000       0.062
   0.25000000  0.25000000  0.25000000       0.031
   0.50000000  0.25000000  0.25000000       0.062
  -0.25000000  0.25000000  0.25000000       0.062
   0.50000000  0.50000000  0.25000000       0.031
  -0.25000000  0.50000000  0.25000000       0.062
  -0.25000000 -0.25000000  0.25000000       0.031
  -0.00000000  0.00000000  0.50000000       0.016
   0.25000000  0.00000000  0.50000000       0.062
   0.50000000  0.00000000  0.50000000       0.031
   0.25000000  0.25000000  0.50000000       0.031
   0.50000000  0.25000000  0.50000000       0.062
  -0.25000000  0.25000000  0.50000000       0.031
   0.50000000  0.50000000  0.50000000       0.016
 
 position of ions in fractional coordinates (direct lattice) 
   0.29911750  0.71859876  0.63663547
   0.93282592  0.82688967  0.88482674
   0.78140124  0.20088248  0.86336453
   0.67311033  0.56717408  0.61517326
   0.70088250  0.28140124  0.36336453
   0.06717409  0.17311033  0.11517325
   0.21859877  0.79911750  0.13663545
   0.32688967  0.43282592  0.38482674
   0.11885269  0.38114731  0.75000000
   0.88114731  0.61885269  0.25000000
   0.61509232  0.88490768  0.75000000
   0.38490765  0.11509235  0.25000000
 
 position of ions in cartesian coordinates  (Angst):
   1.08233358  6.32754090  2.31387922
   5.52119572  7.74811124  3.22038889
   6.34480188  3.89283679  3.13281003
   4.02808215  5.33984809  2.23918323
   4.59291440  2.82614368  1.32583552
   0.15405229  1.40557328  0.41932580
  -0.66955379  5.26084765  0.50690466
   1.64716583  3.81383648  1.40053152
   1.09990717  4.63899730  2.71690319
   4.57534081  4.51468727  0.92281155
   2.93659390  7.68356026  2.72978606
   2.73865380  1.47012448  0.90992869
 


--------------------------------------------------------------------------------------------------------


 k-point  1 :   0.0000 0.0000 0.0000  plane waves:    9761
 k-point  2 :   0.2500 0.0000 0.0000  plane waves:    9769
 k-point  3 :   0.5000 0.0000 0.0000  plane waves:    9774
 k-point  4 :   0.2500 0.2500 0.0000  plane waves:    9775
 k-point  5 :   0.5000 0.2500 0.0000  plane waves:    9807
 k-point  6 :  -0.2500 0.2500-0.0000  plane waves:    9803
 k-point  7 :   0.5000 0.5000 0.0000  plane waves:    9824
 k-point  8 :  -0.0000 0.0000 0.2500  plane waves:    9789
 k-point  9 :   0.2500 0.0000 0.2500  plane waves:    9808
 k-point 10 :   0.5000-0.0000 0.2500  plane waves:    9808
 k-point 11 :  -0.2500-0.0000 0.2500  plane waves:    9776
 k-point 12 :   0.2500 0.2500 0.2500  plane waves:    9788
 k-point 13 :   0.5000 0.2500 0.2500  plane waves:    9784
 k-point 14 :  -0.2500 0.2500 0.2500  plane waves:    9800
 k-point 15 :   0.5000 0.5000 0.2500  plane waves:    9793
 k-point 16 :  -0.2500 0.5000 0.2500  plane waves:    9814
 k-point 17 :  -0.2500-0.2500 0.2500  plane waves:    9803
 k-point 18 :  -0.0000 0.0000 0.5000  plane waves:    9752
 k-point 19 :   0.2500 0.0000 0.5000  plane waves:    9805
 k-point 20 :   0.5000 0.0000 0.5000  plane waves:    9816
 k-point 21 :   0.2500 0.2500 0.5000  plane waves:    9826
 k-point 22 :   0.5000 0.2500 0.5000  plane waves:    9797
 k-point 23 :  -0.2500 0.2500 0.5000  plane waves:    9810
 k-point 24 :   0.5000 0.5000 0.5000  plane waves:    9762

 maximum and minimum number of plane-waves per node :      1009      942

 maximum number of plane-waves:      9826
 maximum index in each direction: 
   IXMAX=   17   IYMAX=   17   IZMAX=   12
   IXMIN=  -17   IYMIN=  -17   IZMIN=  -13


 parallel 3D FFT for wavefunctions:
    minimum data exchange during FFTs selected (reduces bandwidth)
 parallel 3D FFT for charge:
    minimum data exchange during FFTs selected (reduces bandwidth)


 FFT grid for exact exchange (Hartree Fock) 
  NGX = 36; NGY = 36; NGZ = 28

 
 Radii for the augmentation spheres in the non-local exchange
 for species   1 augmentation radius   0.974 (default was   0.722)
       energy cutoff for augmentation   3800.0
 for species   2 augmentation radius   1.261 (default was   0.934)
       energy cutoff for augmentation   3800.0
 for species   3 augmentation radius   1.466 (default was   1.086)
       energy cutoff for augmentation   3800.0

 real space projection operators:
  total allocation   :       2617.02 KBytes
  max/ min on nodes  :        283.89        223.18

 Maximum index for augmentation-charges in exchange          339
  SETUP_FOCK is finished

 total amount of memory used by VASP MPI-rank0   112911. kBytes
=======================================================================

   base      :      30000. kBytes
   nonl-proj :      10739. kBytes
   fftplans  :      32144. kBytes
   grid      :      14801. kBytes
   one-center:         31. kBytes
   HF        :        129. kBytes
   nonlr-proj:       1037. kBytes
   wavefun   :      24030. kBytes
 
     INWAV:  cpu time    1.3881: real time    1.4777
 charge density for first step will be calculated from the start-wavefunctions


--------------------------------------------------------------------------------------------------------


 Maximum index for augmentation-charges        61629 (set IRDMAX)


--------------------------------------------------------------------------------------------------------


 initial charge from wavefunction
    FEWALD:  cpu time    0.0560: real time    0.0550


--------------------------------------- Iteration      1(   1)  ---------------------------------------


    POTLOK:  cpu time    0.1760: real time    0.1949
    SETDIJ:  cpu time    0.4920: real time    0.4949
     EDDAV:  cpu time  433.9031: real time  434.1753
 BZINTS: Fermi energy:  1.677403;100.000000 electrons
         Band energy:***********;  BLOECHL correction:  0.000000
       DOS:  cpu time    0.0000: real time    0.0034
    CHARGE:  cpu time    0.5920: real time    0.5925
    MIXING:  cpu time    0.0040: real time    0.0021
    --------------------------------------------
      LOOP:  cpu time  435.1672: real time  435.4632

 eigenvalue-minimisations  :  2400
 total energy-change (2. order) :-0.1632030E+03  (-0.6021673E-05)
 number of electron     100.0000001 magnetization 
 augmentation part       25.9349162 magnetization 

 Free energy of the ion-electron system (eV)
  ---------------------------------------------------
  alpha Z        PSCENC =       450.71183415
  Ewald energy   TEWEN  =     -7607.28588137
  -Hartree energ DENC   =     -2497.83534533
  -exchange      EXHF   =       767.09675432
  -V(xc)+E(xc)   XCENC  =       168.64281103
  PAW double counting   =     13778.80402222   -13657.52232741
  entropy T*S    EENTRO =         0.00000000
  eigenvalues    EBANDS =     -1492.51187999
  atomic energy  EATOM  =      9926.69705820
  Solvation  Ediel_sol  =         0.00000000
  ---------------------------------------------------
  free energy    TOTEN  =      -163.20295418 eV

  energy without entropy =     -163.20295418  energy(sigma->0) =     -163.20295418
  exchange ACFDT corr.  =        -0.00000000  see jH, gK, PRB 81, 115126


--------------------------------------------------------------------------------------------------------




--------------------------------------- Iteration      1(   2)  ---------------------------------------


    POTLOK:  cpu time    0.1800: real time    0.2054
    SETDIJ:  cpu time    0.4880: real time    0.4890
     EDDAV:  cpu time  289.2741: real time  289.4535
 BZINTS: Fermi energy:  1.677415;100.000000 electrons
         Band energy:***********;  BLOECHL correction:  0.000000
       DOS:  cpu time    0.0040: real time    0.0027
    --------------------------------------------
      LOOP:  cpu time  289.9461: real time  290.1505

 eigenvalue-minimisations  :  1448
 total energy-change (2. order) :-0.8078132E-08  (-0.1134265E-09)
 number of electron     100.0000001 magnetization 
 augmentation part       25.9349162 magnetization 

 Free energy of the ion-electron system (eV)
  ---------------------------------------------------
  alpha Z        PSCENC =       450.71183415
  Ewald energy   TEWEN  =     -7607.28588137
  -Hartree energ DENC   =     -2497.83574564
  -exchange      EXHF   =       767.09679424
  -V(xc)+E(xc)   XCENC  =       168.64281726
  PAW double counting   =     13778.79856643   -13657.51683650
  entropy T*S    EENTRO =         0.00000000
  eigenvalues    EBANDS =     -1492.51156095
  atomic energy  EATOM  =      9926.69705820
  Solvation  Ediel_sol  =         0.00000000
  ---------------------------------------------------
  free energy    TOTEN  =      -163.20295419 eV

  energy without entropy =     -163.20295419  energy(sigma->0) =     -163.20295419
  exchange ACFDT corr.  =        -0.00000000  see jH, gK, PRB 81, 115126


--------------------------------------------------------------------------------------------------------




 average (electrostatic) potential at core
  the test charge radii are     0.7215  0.9339  1.0856
  (the norm of the test charge is              1.0000)
       1 -54.0579       2 -53.9832       3 -54.0579       4 -53.9832       5 -54.0579
       6 -53.9832       7 -54.0579       8 -53.9832       9 -34.8198      10 -34.8197
      11 -90.2302      12 -90.2302
 
 
 
 E-fermi :   1.6774     XC(G=0):  -5.5296     alpha+bet :-12.0766


 k-point     1 :       0.0000    0.0000    0.0000
  band No.  band energies     occupation 
      1     -44.6742      2.00000
      2     -44.6699      2.00000
      3     -44.5272      2.00000
      4     -44.5104      2.00000
      5     -44.4923      2.00000
      6     -44.4905      2.00000
      7     -24.3093      2.00000
      8     -24.2228      2.00000
      9     -24.1993      2.00000
     10     -24.1187      2.00000
     11     -24.0546      2.00000
     12     -24.0485      2.00000
     13     -24.0244      2.00000
     14     -24.0098      2.00000
     15     -24.0013      2.00000
     16     -23.9798      2.00000
     17     -21.7834      2.00000
     18     -20.1492      2.00000
     19     -19.9338      2.00000
     20     -19.7792      2.00000
     21     -19.7631      2.00000
     22     -19.5860      2.00000
     23     -19.4831      2.00000
     24     -19.3247      2.00000
     25      -9.9184      2.00000
     26      -8.6565      2.00000
     27      -5.6816      2.00000
     28      -5.3993      2.00000
     29      -5.1564      2.00000
     30      -4.7828      2.00000
     31      -4.4755      2.00000
     32      -3.9104      2.00000
     33      -3.4037      2.00000
     34      -3.3909      2.00000
     35      -3.3409      2.00000
     36      -3.1325      2.00000
     37      -2.8795      2.00000
     38      -2.4932      2.00000
     39      -2.1225      2.00000
     40      -2.0366      2.00000
     41      -1.9688      2.00000
     42      -1.7204      2.00000
     43      -1.3014      2.00000
     44      -1.1899      2.00000
     45      -1.1389      2.00000
     46      -0.7463      2.00000
     47      -0.3020      2.00000
     48      -0.1570      2.00000
     49       0.3844      2.00000
     50       0.5931      2.00000
     51       9.0945      0.00000
     52       9.5554      0.00000
     53      10.1798      0.00000
     54      10.3739      0.00000
     55      10.7268      0.00000
     56      11.0721      0.00000
     57      11.0738      0.00000
     58      11.1077      0.00000
     59      11.1079      0.00000
     60      11.2555      0.00000

 k-point     2 :       0.2500    0.0000    0.0000
  band No.  band energies     occupation 
      1     -44.6745      2.00000
      2     -44.6696      2.00000
      3     -44.5257      2.00000
      4     -44.5119      2.00000
      5     -44.4922      2.00000
      6     -44.4907      2.00000
      7     -24.3068      2.00000
      8     -24.2338      2.00000
      9     -24.2159      2.00000
     10     -24.1242      2.00000
     11     -24.0467      2.00000
     12     -24.0380      2.00000
     13     -24.0244      2.00000
     14     -24.0062      2.00000
     15     -23.9923      2.00000
     16     -23.9775      2.00000
     17     -21.5550      2.00000
     18     -20.3537      2.00000
     19     -20.0039      2.00000
     20     -19.8634      2.00000
     21     -19.6927      2.00000
     22     -19.5614      2.00000
     23     -19.5069      2.00000
     24     -19.3298      2.00000
     25      -9.8255      2.00000
     26      -8.7090      2.00000
     27      -5.5529      2.00000
     28      -5.4766      2.00000
     29      -5.1523      2.00000
     30      -4.5449      2.00000
     31      -4.3507      2.00000
     32      -3.8812      2.00000
     33      -3.7633      2.00000
     34      -3.5019      2.00000
     35      -3.2738      2.00000
     36      -3.0775      2.00000
     37      -2.9081      2.00000
     38      -2.6218      2.00000
     39      -2.4255      2.00000
     40      -2.2047      2.00000
     41      -1.9012      2.00000
     42      -1.5675      2.00000
     43      -1.3874      2.00000
     44      -1.1540      2.00000
     45      -0.8480      2.00000
     46      -0.7136      2.00000
     47      -0.1969      2.00000
     48      -0.1742      2.00000
     49       0.2199      2.00000
     50       0.9741      2.00000
     51       9.0085      0.00000
     52       9.4334      0.00000
     53       9.7725      0.00000
     54       9.9421      0.00000
     55      10.5811      0.00000
     56      10.6944      0.00000
     57      10.8472      0.00000
     58      11.2726      0.00000
     59      11.5786      0.00000
     60      11.8313      0.00000

 k-point     3 :       0.5000    0.0000    0.0000
  band No.  band energies     occupation 
      1     -44.6747      2.00000
      2     -44.6694      2.00000
      3     -44.5237      2.00000
      4     -44.5137      2.00000
      5     -44.4919      2.00000
      6     -44.4913      2.00000
      7     -24.3047      2.00000
      8     -24.2433      2.00000
      9     -24.2310      2.00000
     10     -24.1276      2.00000
     11     -24.0394      2.00000
     12     -24.0334      2.00000
     13     -24.0252      2.00000
     14     -24.0014      2.00000
     15     -23.9824      2.00000
     16     -23.9747      2.00000
     17     -21.1356      2.00000
     18     -20.7418      2.00000
     19     -20.0859      2.00000
     20     -19.9154      2.00000
     21     -19.7329      2.00000
     22     -19.5253      2.00000
     23     -19.4254      2.00000
     24     -19.3685      2.00000
     25      -9.7063      2.00000
     26      -8.7915      2.00000
     27      -5.6051      2.00000
     28      -5.2702      2.00000
     29      -4.8843      2.00000
     30      -4.8097      2.00000
     31      -4.4729      2.00000
     32      -4.0580      2.00000
     33      -3.3636      2.00000
     34      -3.3615      2.00000
     35      -3.2062      2.00000
     36      -3.1507      2.00000
     37      -2.9340      2.00000
     38      -2.7496      2.00000
     39      -2.6546      2.00000
     40      -2.3941      2.00000
     41      -1.8931      2.00000
     42      -1.4928      2.00000
     43      -1.3736      2.00000
     44      -1.0691      2.00000
     45      -0.8442      2.00000
     46      -0.6092      2.00000
     47      -0.5302      2.00000
     48      -0.3286      2.00000
     49       0.3959      2.00000
     50       1.4403      2.00000
     51       8.7783      0.00000
     52       9.1414      0.00000
     53       9.8710      0.00000
     54       9.9703      0.00000
     55      10.4064      0.00000
     56      10.5865      0.00000
     57      10.7161      0.00000
     58      11.3977      0.00000
     59      11.4597      0.00000
     60      11.6443      0.00000

 k-point     4 :       0.2500    0.2500    0.0000
  band No.  band energies     occupation 
      1     -44.6747      2.00000
      2     -44.6694      2.00000
      3     -44.5237      2.00000
      4     -44.5137      2.00000
      5     -44.4920      2.00000
      6     -44.4912      2.00000
      7     -24.3047      2.00000
      8     -24.2417      2.00000
      9     -24.2321      2.00000
     10     -24.1304      2.00000
     11     -24.0382      2.00000
     12     -24.0278      2.00000
     13     -24.0267      2.00000
     14     -23.9970      2.00000
     15     -23.9911      2.00000
     16     -23.9734      2.00000
     17     -21.1429      2.00000
     18     -20.7198      2.00000
     19     -20.1234      2.00000
     20     -19.9159      2.00000
     21     -19.7016      2.00000
     22     -19.5329      2.00000
     23     -19.3992      2.00000
     24     -19.3952      2.00000
     25      -9.7059      2.00000
     26      -8.7930      2.00000
     27      -5.6050      2.00000
     28      -5.1762      2.00000
     29      -5.0868      2.00000
     30      -4.8826      2.00000
     31      -4.1157      2.00000
     32      -3.9574      2.00000
     33      -3.7254      2.00000
     34      -3.3655      2.00000
     35      -3.2881      2.00000
     36      -3.0401      2.00000
     37      -2.9220      2.00000
     38      -2.6817      2.00000
     39      -2.6209      2.00000
     40      -2.3678      2.00000
     41      -2.0595      2.00000
     42      -1.5479      2.00000
     43      -1.1774      2.00000
     44      -1.1148      2.00000
     45      -0.8046      2.00000
     46      -0.7962      2.00000
     47      -0.3730      2.00000
     48      -0.2494      2.00000
     49       0.2572      2.00000
     50       1.4900      2.00000
     51       8.7807      0.00000
     52       9.1431      0.00000
     53       9.8169      0.00000
     54       9.9774      0.00000
     55      10.4044      0.00000
     56      10.5975      0.00000
     57      10.6816      0.00000
     58      11.4541      0.00000
     59      11.4796      0.00000
     60      11.7228      0.00000

 k-point     5 :       0.5000    0.2500    0.0000
  band No.  band energies     occupation 
      1     -44.6750      2.00000
      2     -44.6691      2.00000
      3     -44.5224      2.00000
      4     -44.5151      2.00000
      5     -44.4929      2.00000
      6     -44.4900      2.00000
      7     -24.3069      2.00000
      8     -24.2445      2.00000
      9     -24.2350      2.00000
     10     -24.1368      2.00000
     11     -24.0339      2.00000
     12     -24.0254      2.00000
     13     -24.0249      2.00000
     14     -23.9959      2.00000
     15     -23.9815      2.00000
     16     -23.9711      2.00000
     17     -21.4270      2.00000
     18     -20.4506      2.00000
     19     -20.2706      2.00000
     20     -19.9387      2.00000
     21     -19.5562      2.00000
     22     -19.5322      2.00000
     23     -19.4314      2.00000
     24     -19.2935      2.00000
     25      -9.6966      2.00000
     26      -8.8400      2.00000
     27      -5.5205      2.00000
     28      -5.0370      2.00000
     29      -4.7722      2.00000
     30      -4.4448      2.00000
     31      -4.2369      2.00000
     32      -4.0444      2.00000
     33      -3.7874      2.00000
     34      -3.5290      2.00000
     35      -3.4566      2.00000
     36      -3.2041      2.00000
     37      -3.0923      2.00000
     38      -2.8374      2.00000
     39      -2.4885      2.00000
     40      -2.3636      2.00000
     41      -2.2091      2.00000
     42      -1.7320      2.00000
     43      -1.4782      2.00000
     44      -0.9914      2.00000
     45      -0.6983      2.00000
     46      -0.4422      2.00000
     47      -0.3440      2.00000
     48      -0.1712      2.00000
     49       0.2687      2.00000
     50       0.7855      2.00000
     51       9.2144      0.00000
     52       9.4370      0.00000
     53       9.8309      0.00000
     54      10.1399      0.00000
     55      10.5284      0.00000
     56      10.6284      0.00000
     57      10.9444      0.00000
     58      11.2815      0.00000
     59      11.6554      0.00000
     60      11.8484      0.00000

 k-point     6 :      -0.2500    0.2500   -0.0000
  band No.  band energies     occupation 
      1     -44.6748      2.00000
      2     -44.6693      2.00000
      3     -44.5248      2.00000
      4     -44.5128      2.00000
      5     -44.4930      2.00000
      6     -44.4897      2.00000
      7     -24.3089      2.00000
      8     -24.2361      2.00000
      9     -24.2201      2.00000
     10     -24.1333      2.00000
     11     -24.0380      2.00000
     12     -24.0327      2.00000
     13     -24.0237      2.00000
     14     -24.0050      2.00000
     15     -23.9825      2.00000
     16     -23.9781      2.00000
     17     -21.6921      2.00000
     18     -20.4035      2.00000
     19     -19.9704      2.00000
     20     -19.8887      2.00000
     21     -19.6437      2.00000
     22     -19.4761      2.00000
     23     -19.4736      2.00000
     24     -19.2877      2.00000
     25      -9.8138      2.00000
     26      -8.7620      2.00000
     27      -5.3875      2.00000
     28      -5.3270      2.00000
     29      -4.8186      2.00000
     30      -4.7348      2.00000
     31      -4.3413      2.00000
     32      -3.8935      2.00000
     33      -3.5050      2.00000
     34      -3.4633      2.00000
     35      -3.3583      2.00000
     36      -3.2955      2.00000
     37      -2.9302      2.00000
     38      -2.5989      2.00000
     39      -2.4483      2.00000
     40      -2.3771      2.00000
     41      -2.1800      2.00000
     42      -2.1032      2.00000
     43      -1.4851      2.00000
     44      -0.7063      2.00000
     45      -0.6000      2.00000
     46      -0.5074      2.00000
     47      -0.3283      2.00000
     48      -0.2290      2.00000
     49       0.0268      2.00000
     50       0.5414      2.00000
     51       9.2757      0.00000
     52       9.7777      0.00000
     53       9.9965      0.00000
     54      10.3206      0.00000
     55      10.4237      0.00000
     56      10.4548      0.00000
     57      11.3269      0.00000
     58      11.4691      0.00000
     59      11.5489      0.00000
     60      11.6022      0.00000

 k-point     7 :       0.5000    0.5000    0.0000
  band No.  band energies     occupation 
      1     -44.6754      2.00000
      2     -44.6689      2.00000
      3     -44.5202      2.00000
      4     -44.5175      2.00000
      5     -44.4934      2.00000
      6     -44.4892      2.00000
      7     -24.3085      2.00000
      8     -24.2471      2.00000
      9     -24.2374      2.00000
     10     -24.1444      2.00000
     11     -24.0344      2.00000
     12     -24.0246      2.00000
     13     -24.0145      2.00000
     14     -23.9868      2.00000
     15     -23.9848      2.00000
     16     -23.9657      2.00000
     17     -21.5725      2.00000
     18     -20.6306      2.00000
     19     -20.0021      2.00000
     20     -19.9593      2.00000
     21     -19.5829      2.00000
     22     -19.4605      2.00000
     23     -19.4063      2.00000
     24     -19.2545      2.00000
     25      -9.6994      2.00000
     26      -8.8725      2.00000
     27      -5.3745      2.00000
     28      -4.6758      2.00000
     29      -4.5864      2.00000
     30      -4.3970      2.00000
     31      -4.0999      2.00000
     32      -4.0824      2.00000
     33      -3.7762      2.00000
     34      -3.7049      2.00000
     35      -3.4528      2.00000
     36      -3.3742      2.00000
     37      -3.1266      2.00000
     38      -2.8670      2.00000
     39      -2.7337      2.00000
     40      -2.6283      2.00000
     41      -2.5360      2.00000
     42      -2.0654      2.00000
     43      -0.9501      2.00000
     44      -0.8198      2.00000
     45      -0.4118      2.00000
     46      -0.3884      2.00000
     47      -0.2651      2.00000
     48      -0.2038      2.00000
     49      -0.1896      2.00000
     50       0.3709      2.00000
     51       9.7316      0.00000
     52       9.8468      0.00000
     53       9.9883      0.00000
     54      10.0131      0.00000
     55      10.0394      0.00000
     56      10.2567      0.00000
     57      11.5751      0.00000
     58      11.7649      0.00000
     59      11.8839      0.00000
     60      12.1121      0.00000

 k-point     8 :      -0.0000    0.0000    0.2500
  band No.  band energies     occupation 
      1     -44.6737      2.00000
      2     -44.6706      2.00000
      3     -44.5248      2.00000
      4     -44.5132      2.00000
      5     -44.4915      2.00000
      6     -44.4905      2.00000
      7     -24.3173      2.00000
      8     -24.2489      2.00000
      9     -24.1946      2.00000
     10     -24.0923      2.00000
     11     -24.0597      2.00000
     12     -24.0505      2.00000
     13     -24.0252      2.00000
     14     -24.0060      2.00000
     15     -24.0051      2.00000
     16     -23.9820      2.00000
     17     -21.3928      2.00000
     18     -20.2351      2.00000
     19     -20.0745      2.00000
     20     -19.7465      2.00000
     21     -19.7360      2.00000
     22     -19.6981      2.00000
     23     -19.6945      2.00000
     24     -19.3319      2.00000
     25      -9.6783      2.00000
     26      -8.8172      2.00000
     27      -5.6073      2.00000
     28      -5.4831      2.00000
     29      -5.0885      2.00000
     30      -4.7214      2.00000
     31      -4.2627      2.00000
     32      -3.6055      2.00000
     33      -3.3826      2.00000
     34      -3.2916      2.00000
     35      -3.2120      2.00000
     36      -3.0989      2.00000
     37      -3.0858      2.00000
     38      -2.7236      2.00000
     39      -2.6480      2.00000
     40      -2.2318      2.00000
     41      -2.1429      2.00000
     42      -1.9127      2.00000
     43      -1.3151      2.00000
     44      -0.9932      2.00000
     45      -0.9254      2.00000
     46      -0.5970      2.00000
     47      -0.3550      2.00000
     48      -0.1482      2.00000
     49      -0.0016      2.00000
     50       1.5123      2.00000
     51       9.0425      0.00000
     52       9.3131      0.00000
     53       9.6319      0.00000
     54       9.8504      0.00000
     55      10.4872      0.00000
     56      10.7776      0.00000
     57      10.9306      0.00000
     58      11.1384      0.00000
     59      11.4729      0.00000
     60      11.8232      0.00000

 k-point     9 :       0.2500    0.0000    0.2500
  band No.  band energies     occupation 
      1     -44.6739      2.00000
      2     -44.6707      2.00000
      3     -44.5251      2.00000
      4     -44.5122      2.00000
      5     -44.4924      2.00000
      6     -44.4900      2.00000
      7     -24.3053      2.00000
      8     -24.2384      2.00000
      9     -24.1970      2.00000
     10     -24.0942      2.00000
     11     -24.0635      2.00000
     12     -24.0541      2.00000
     13     -24.0258      2.00000
     14     -24.0088      2.00000
     15     -24.0073      2.00000
     16     -23.9747      2.00000
     17     -21.5530      2.00000
     18     -20.2705      2.00000
     19     -20.0947      2.00000
     20     -19.8525      2.00000
     21     -19.7169      2.00000
     22     -19.5665      2.00000
     23     -19.5262      2.00000
     24     -19.2994      2.00000
     25      -9.7371      2.00000
     26      -8.8567      2.00000
     27      -5.4795      2.00000
     28      -5.2876      2.00000
     29      -4.9968      2.00000
     30      -4.6872      2.00000
     31      -4.3315      2.00000
     32      -3.6518      2.00000
     33      -3.5869      2.00000
     34      -3.4937      2.00000
     35      -3.2749      2.00000
     36      -3.1076      2.00000
     37      -3.0438      2.00000
     38      -2.5594      2.00000
     39      -2.4277      2.00000
     40      -2.2808      2.00000
     41      -2.1525      2.00000
     42      -1.6427      2.00000
     43      -1.3593      2.00000
     44      -1.2306      2.00000
     45      -1.0351      2.00000
     46      -0.6148      2.00000
     47      -0.3847      2.00000
     48      -0.3571      2.00000
     49       0.2831      2.00000
     50       1.1324      2.00000
     51       9.1458      0.00000
     52       9.5237      0.00000
     53       9.7484      0.00000
     54       9.8448      0.00000
     55      10.3902      0.00000
     56      10.7969      0.00000
     57      11.0307      0.00000
     58      11.2444      0.00000
     59      11.4315      0.00000
     60      11.7433      0.00000

 k-point    10 :       0.5000   -0.0000    0.2500
  band No.  band energies     occupation 
      1     -44.6742      2.00000
      2     -44.6702      2.00000
      3     -44.5230      2.00000
      4     -44.5144      2.00000
      5     -44.4923      2.00000
      6     -44.4903      2.00000
      7     -24.3042      2.00000
      8     -24.2583      2.00000
      9     -24.2074      2.00000
     10     -24.1052      2.00000
     11     -24.0539      2.00000
     12     -24.0421      2.00000
     13     -24.0252      2.00000
     14     -24.0054      2.00000
     15     -24.0002      2.00000
     16     -23.9734      2.00000
     17     -21.2831      2.00000
     18     -20.3348      2.00000
     19     -20.1960      2.00000
     20     -20.0535      2.00000
     21     -19.6241      2.00000
     22     -19.5667      2.00000
     23     -19.4883      2.00000
     24     -19.3840      2.00000
     25      -9.6095      2.00000
     26      -8.9109      2.00000
     27      -5.3680      2.00000
     28      -5.0993      2.00000
     29      -4.9934      2.00000
     30      -4.8816      2.00000
     31      -4.1294      2.00000
     32      -3.8091      2.00000
     33      -3.6502      2.00000
     34      -3.4578      2.00000
     35      -3.3280      2.00000
     36      -3.2387      2.00000
     37      -2.9639      2.00000
     38      -2.6762      2.00000
     39      -2.6321      2.00000
     40      -2.5222      2.00000
     41      -2.2935      2.00000
     42      -1.5338      2.00000
     43      -1.2488      2.00000
     44      -0.9606      2.00000
     45      -0.9091      2.00000
     46      -0.6742      2.00000
     47      -0.4395      2.00000
     48      -0.2237      2.00000
     49       0.3312      2.00000
     50       1.2551      2.00000
     51       9.1818      0.00000
     52       9.3056      0.00000
     53       9.8182      0.00000
     54      10.1508      0.00000
     55      10.1987      0.00000
     56      10.3895      0.00000
     57      10.9815      0.00000
     58      11.2640      0.00000
     59      11.5001      0.00000
     60      11.6281      0.00000

 k-point    11 :      -0.2500   -0.0000    0.2500
  band No.  band energies     occupation 
      1     -44.6740      2.00000
      2     -44.6702      2.00000
      3     -44.5225      2.00000
      4     -44.5155      2.00000
      5     -44.4914      2.00000
      6     -44.4909      2.00000
      7     -24.3160      2.00000
      8     -24.2683      2.00000
      9     -24.2053      2.00000
     10     -24.1038      2.00000
     11     -24.0530      2.00000
     12     -24.0374      2.00000
     13     -24.0227      2.00000
     14     -24.0017      2.00000
     15     -23.9952      2.00000
     16     -23.9844      2.00000
     17     -20.9720      2.00000
     18     -20.5446      2.00000
     19     -20.1321      2.00000
     20     -20.0276      2.00000
     21     -19.6992      2.00000
     22     -19.6336      2.00000
     23     -19.5365      2.00000
     24     -19.4147      2.00000
     25      -9.5332      2.00000
     26      -8.8869      2.00000
     27      -5.4837      2.00000
     28      -5.3464      2.00000
     29      -4.9780      2.00000
     30      -4.6688      2.00000
     31      -4.3752      2.00000
     32      -4.0502      2.00000
     33      -3.7013      2.00000
     34      -3.4773      2.00000
     35      -3.2604      2.00000
     36      -3.1473      2.00000
     37      -2.8528      2.00000
     38      -2.6971      2.00000
     39      -2.6715      2.00000
     40      -2.2382      2.00000
     41      -1.8573      2.00000
     42      -1.6433      2.00000
     43      -1.2069      2.00000
     44      -1.1080      2.00000
     45      -0.9580      2.00000
     46      -0.6821      2.00000
     47      -0.4840      2.00000
     48      -0.2160      2.00000
     49       0.3310      2.00000
     50       1.5329      2.00000
     51       9.0303      0.00000
     52       9.2890      0.00000
     53       9.8169      0.00000
     54       9.8790      0.00000
     55      10.1636      0.00000
     56      10.3739      0.00000
     57      10.8529      0.00000
     58      11.1495      0.00000
     59      11.5808      0.00000
     60      11.7002      0.00000

 k-point    12 :       0.2500    0.2500    0.2500
  band No.  band energies     occupation 
      1     -44.6738      2.00000
      2     -44.6707      2.00000
      3     -44.5245      2.00000
      4     -44.5124      2.00000
      5     -44.4922      2.00000
      6     -44.4908      2.00000
      7     -24.3068      2.00000
      8     -24.2458      2.00000
      9     -24.1973      2.00000
     10     -24.0982      2.00000
     11     -24.0643      2.00000
     12     -24.0568      2.00000
     13     -24.0265      2.00000
     14     -24.0090      2.00000
     15     -24.0048      2.00000
     16     -23.9708      2.00000
     17     -21.3664      2.00000
     18     -20.2200      2.00000
     19     -20.1753      2.00000
     20     -19.9002      2.00000
     21     -19.6488      2.00000
     22     -19.6332      2.00000
     23     -19.5625      2.00000
     24     -19.4071      2.00000
     25      -9.6832      2.00000
     26      -8.8309      2.00000
     27      -5.5757      2.00000
     28      -5.2846      2.00000
     29      -5.1380      2.00000
     30      -5.0185      2.00000
     31      -3.8981      2.00000
     32      -3.7462      2.00000
     33      -3.5501      2.00000
     34      -3.4914      2.00000
     35      -3.1684      2.00000
     36      -3.0418      2.00000
     37      -3.0327      2.00000
     38      -2.7517      2.00000
     39      -2.6757      2.00000
     40      -2.1982      2.00000
     41      -1.8342      2.00000
     42      -1.6963      2.00000
     43      -1.5654      2.00000
     44      -0.9868      2.00000
     45      -0.8323      2.00000
     46      -0.8003      2.00000
     47      -0.5462      2.00000
     48      -0.1157      2.00000
     49       0.2831      2.00000
     50       1.4028      2.00000
     51       9.2134      0.00000
     52       9.2761      0.00000
     53       9.5589      0.00000
     54      10.0564      0.00000
     55      10.3439      0.00000
     56      10.6743      0.00000
     57      10.8564      0.00000
     58      11.1788      0.00000
     59      11.4474      0.00000
     60      11.4552      0.00000

 k-point    13 :       0.5000    0.2500    0.2500
  band No.  band energies     occupation 
      1     -44.6741      2.00000
      2     -44.6704      2.00000
      3     -44.5220      2.00000
      4     -44.5149      2.00000
      5     -44.4919      2.00000
      6     -44.4912      2.00000
      7     -24.3182      2.00000
      8     -24.2639      2.00000
      9     -24.2033      2.00000
     10     -24.1086      2.00000
     11     -24.0595      2.00000
     12     -24.0429      2.00000
     13     -24.0217      2.00000
     14     -24.0042      2.00000
     15     -23.9937      2.00000
     16     -23.9723      2.00000
     17     -20.9783      2.00000
     18     -20.5573      2.00000
     19     -20.1135      2.00000
     20     -19.9794      2.00000
     21     -19.7127      2.00000
     22     -19.6482      2.00000
     23     -19.5296      2.00000
     24     -19.4418      2.00000
     25      -9.5466      2.00000
     26      -8.8572      2.00000
     27      -5.6335      2.00000
     28      -5.4397      2.00000
     29      -5.0030      2.00000
     30      -4.6601      2.00000
     31      -4.0940      2.00000
     32      -4.0018      2.00000
     33      -3.5178      2.00000
     34      -3.4372      2.00000
     35      -3.2971      2.00000
     36      -3.1979      2.00000
     37      -2.9889      2.00000
     38      -2.8660      2.00000
     39      -2.5272      2.00000
     40      -2.1033      2.00000
     41      -1.8862      2.00000
     42      -1.7462      2.00000
     43      -1.4777      2.00000
     44      -1.0197      2.00000
     45      -0.8649      2.00000
     46      -0.6427      2.00000
     47      -0.5255      2.00000
     48      -0.3373      2.00000
     49       0.5937      2.00000
     50       1.4380      2.00000
     51       8.9903      0.00000
     52       9.4298      0.00000
     53       9.7717      0.00000
     54       9.9033      0.00000
     55      10.4424      0.00000
     56      10.5991      0.00000
     57      10.8056      0.00000
     58      10.9204      0.00000
     59      11.2686      0.00000
     60      11.6867      0.00000

 k-point    14 :      -0.2500    0.2500    0.2500
  band No.  band energies     occupation 
      1     -44.6741      2.00000
      2     -44.6704      2.00000
      3     -44.5229      2.00000
      4     -44.5145      2.00000
      5     -44.4924      2.00000
      6     -44.4901      2.00000
      7     -24.3165      2.00000
      8     -24.2562      2.00000
      9     -24.2038      2.00000
     10     -24.1055      2.00000
     11     -24.0613      2.00000
     12     -24.0371      2.00000
     13     -24.0194      2.00000
     14     -24.0027      2.00000
     15     -23.9966      2.00000
     16     -23.9785      2.00000
     17     -21.3159      2.00000
     18     -20.3025      2.00000
     19     -20.1452      2.00000
     20     -19.9912      2.00000
     21     -19.6848      2.00000
     22     -19.6114      2.00000
     23     -19.5587      2.00000
     24     -19.3168      2.00000
     25      -9.6153      2.00000
     26      -8.8625      2.00000
     27      -5.5033      2.00000
     28      -5.2428      2.00000
     29      -5.0244      2.00000
     30      -4.5990      2.00000
     31      -4.3100      2.00000
     32      -4.0456      2.00000
     33      -3.6317      2.00000
     34      -3.3949      2.00000
     35      -3.3313      2.00000
     36      -3.0568      2.00000
     37      -2.8440      2.00000
     38      -2.6808      2.00000
     39      -2.5055      2.00000
     40      -2.4115      2.00000
     41      -2.1377      2.00000
     42      -1.6245      2.00000
     43      -1.3538      2.00000
     44      -1.1103      2.00000
     45      -0.8991      2.00000
     46      -0.7698      2.00000
     47      -0.3541      2.00000
     48      -0.2081      2.00000
     49       0.2802      2.00000
     50       1.2151      2.00000
     51       9.0331      0.00000
     52       9.4324      0.00000
     53       9.8391      0.00000
     54      10.0462      0.00000
     55      10.2672      0.00000
     56      10.5866      0.00000
     57      11.1732      0.00000
     58      11.3039      0.00000
     59      11.3595      0.00000
     60      11.6432      0.00000

 k-point    15 :       0.5000    0.5000    0.2500
  band No.  band energies     occupation 
      1     -44.6745      2.00000
      2     -44.6702      2.00000
      3     -44.5193      2.00000
      4     -44.5175      2.00000
      5     -44.4929      2.00000
      6     -44.4899      2.00000
      7     -24.3158      2.00000
      8     -24.2638      2.00000
      9     -24.2099      2.00000
     10     -24.1200      2.00000
     11     -24.0495      2.00000
     12     -24.0348      2.00000
     13     -24.0190      2.00000
     14     -24.0010      2.00000
     15     -23.9841      2.00000
     16     -23.9755      2.00000
     17     -21.2210      2.00000
     18     -20.3877      2.00000
     19     -20.2034      2.00000
     20     -20.1167      2.00000
     21     -19.6626      2.00000
     22     -19.5504      2.00000
     23     -19.4969      2.00000
     24     -19.3047      2.00000
     25      -9.5479      2.00000
     26      -8.9122      2.00000
     27      -5.2375      2.00000
     28      -5.1759      2.00000
     29      -4.8691      2.00000
     30      -4.6654      2.00000
     31      -4.3692      2.00000
     32      -3.8707      2.00000
     33      -3.8207      2.00000
     34      -3.5878      2.00000
     35      -3.3823      2.00000
     36      -3.3632      2.00000
     37      -2.9135      2.00000
     38      -2.7463      2.00000
     39      -2.4440      2.00000
     40      -2.2528      2.00000
     41      -2.0372      2.00000
     42      -1.8303      2.00000
     43      -1.2468      2.00000
     44      -1.0370      2.00000
     45      -0.9044      2.00000
     46      -0.5277      2.00000
     47      -0.4240      2.00000
     48      -0.4189      2.00000
     49       0.6599      2.00000
     50       0.7125      2.00000
     51       9.0665      0.00000
     52       9.7324      0.00000
     53       9.8644      0.00000
     54       9.9840      0.00000
     55      10.2847      0.00000
     56      10.6799      0.00000
     57      10.8138      0.00000
     58      11.2337      0.00000
     59      11.6233      0.00000
     60      11.7970      0.00000

 k-point    16 :      -0.2500    0.5000    0.2500
  band No.  band energies     occupation 
      1     -44.6746      2.00000
      2     -44.6701      2.00000
[...]
     56      10.5086      0.00000
     57      10.9773      0.00000
     58      11.2408      0.00000
     59      11.5942      0.00000
     60      11.7694      0.00000

 k-point    21 :       0.2500    0.2500    0.5000
  band No.  band energies     occupation 
      1     -44.6727      2.00000
      2     -44.6719      2.00000
      3     -44.5219      2.00000
      4     -44.5148      2.00000
      5     -44.4923      2.00000
      6     -44.4894      2.00000
      7     -24.2902      2.00000
      8     -24.2769      2.00000
      9     -24.1420      2.00000
     10     -24.1188      2.00000
     11     -24.0898      2.00000
     12     -24.0452      2.00000
     13     -24.0122      2.00000
     14     -24.0089      2.00000
     15     -24.0034      2.00000
     16     -23.9796      2.00000
     17     -21.0463      2.00000
     18     -20.8348      2.00000
     19     -20.0792      2.00000
     20     -19.8652      2.00000
     21     -19.7480      2.00000
     22     -19.6069      2.00000
     23     -19.4662      2.00000
     24     -19.3084      2.00000
     25      -9.3620      2.00000
     26      -9.2430      2.00000
     27      -5.3558      2.00000
     28      -5.2071      2.00000
     29      -4.4025      2.00000
     30      -4.3873      2.00000
     31      -4.1867      2.00000
     32      -3.9313      2.00000
     33      -3.8814      2.00000
     34      -3.6453      2.00000
     35      -3.4018      2.00000
     36      -3.0046      2.00000
     37      -2.9802      2.00000
     38      -2.7117      2.00000
     39      -2.5503      2.00000
     40      -2.4785      2.00000
     41      -2.1714      2.00000
     42      -1.7227      2.00000
     43      -1.3802      2.00000
     44      -1.1732      2.00000
     45      -1.0379      2.00000
     46      -0.6421      2.00000
     47      -0.6237      2.00000
     48      -0.5127      2.00000
     49       0.5148      2.00000
     50       1.5016      2.00000
     51       8.7936      0.00000
     52       9.3530      0.00000
     53       9.8191      0.00000
     54       9.8309      0.00000
     55      10.1225      0.00000
     56      10.6722      0.00000
     57      11.1857      0.00000
     58      11.3102      0.00000
     59      11.4280      0.00000
     60      11.6926      0.00000

 k-point    22 :       0.5000    0.2500    0.5000
  band No.  band energies     occupation 
      1     -44.6725      2.00000
      2     -44.6720      2.00000
      3     -44.5208      2.00000
      4     -44.5156      2.00000
      5     -44.4922      2.00000
      6     -44.4900      2.00000
      7     -24.2979      2.00000
      8     -24.2955      2.00000
      9     -24.1364      2.00000
     10     -24.1213      2.00000
     11     -24.0827      2.00000
     12     -24.0595      2.00000
     13     -24.0118      2.00000
     14     -24.0097      2.00000
     15     -23.9969      2.00000
     16     -23.9775      2.00000
     17     -20.8364      2.00000
     18     -20.7590      2.00000
     19     -19.9694      2.00000
     20     -19.8637      2.00000
     21     -19.8610      2.00000
     22     -19.7894      2.00000
     23     -19.5058      2.00000
     24     -19.3876      2.00000
     25      -9.2657      2.00000
     26      -9.1931      2.00000
     27      -5.4910      2.00000
     28      -5.1395      2.00000
     29      -4.9826      2.00000
     30      -4.7623      2.00000
     31      -4.1591      2.00000
     32      -3.9278      2.00000
     33      -3.7242      2.00000
     34      -3.3494      2.00000
     35      -3.2849      2.00000
     36      -3.1533      2.00000
     37      -2.9319      2.00000
     38      -2.7252      2.00000
     39      -2.4946      2.00000
     40      -2.1501      2.00000
     41      -2.0481      2.00000
     42      -1.6485      2.00000
     43      -1.3734      2.00000
     44      -1.1668      2.00000
     45      -1.0528      2.00000
     46      -0.8076      2.00000
     47      -0.7429      2.00000
     48      -0.3052      2.00000
     49       0.6348      2.00000
     50       1.4602      2.00000
     51       9.0065      0.00000
     52       9.4755      0.00000
     53       9.8308      0.00000
     54       9.8862      0.00000
     55      10.1365      0.00000
     56      10.5540      0.00000
     57      10.7246      0.00000
     58      11.0548      0.00000
     59      11.4745      0.00000
     60      11.6689      0.00000

 k-point    23 :      -0.2500    0.2500    0.5000
  band No.  band energies     occupation 
      1     -44.6721      2.00000
      2     -44.6721      2.00000
      3     -44.5185      2.00000
      4     -44.5185      2.00000
      5     -44.4909      2.00000
      6     -44.4909      2.00000
      7     -24.3090      2.00000
      8     -24.3090      2.00000
      9     -24.1326      2.00000
     10     -24.1326      2.00000
     11     -24.0633      2.00000
     12     -24.0633      2.00000
     13     -24.0104      2.00000
     14     -24.0104      2.00000
     15     -23.9896      2.00000
     16     -23.9896      2.00000
     17     -20.5613      2.00000
     18     -20.5613      2.00000
     19     -20.1351      2.00000
     20     -20.1351      2.00000
     21     -19.7391      2.00000
     22     -19.7391      2.00000
     23     -19.5593      2.00000
     24     -19.5593      2.00000
     25      -9.1632      2.00000
     26      -9.1632      2.00000
     27      -5.4013      2.00000
     28      -5.4013      2.00000
     29      -5.0906      2.00000
     30      -5.0906      2.00000
     31      -3.9931      2.00000
     32      -3.9931      2.00000
     33      -3.4597      2.00000
     34      -3.4597      2.00000
     35      -3.1046      2.00000
     36      -3.1046      2.00000
     37      -2.7637      2.00000
     38      -2.7637      2.00000
     39      -2.5790      2.00000
     40      -2.5790      2.00000
     41      -1.8974      2.00000
     42      -1.8974      2.00000
     43      -1.2772      2.00000
     44      -1.2772      2.00000
     45      -0.7574      2.00000
     46      -0.7574      2.00000
     47      -0.4318      2.00000
     48      -0.4318      2.00000
     49       1.1161      2.00000
     50       1.1162      2.00000
     51       9.5395      0.00000
     52       9.5395      0.00000
     53       9.7703      0.00000
     54       9.7703      0.00000
     55      10.1933      0.00000
     56      10.1933      0.00000
     57      10.7697      0.00000
     58      10.7697      0.00000
     59      11.5834      0.00000
     60      11.5834      0.00000

 k-point    24 :       0.5000    0.5000    0.5000
  band No.  band energies     occupation 
      1     -44.6722      2.00000
      2     -44.6722      2.00000
      3     -44.5180      2.00000
      4     -44.5180      2.00000
      5     -44.4913      2.00000
      6     -44.4913      2.00000
      7     -24.3094      2.00000
      8     -24.3094      2.00000
      9     -24.1250      2.00000
     10     -24.1250      2.00000
     11     -24.0767      2.00000
     12     -24.0767      2.00000
     13     -24.0111      2.00000
     14     -24.0111      2.00000
     15     -23.9830      2.00000
     16     -23.9830      2.00000
     17     -20.5640      2.00000
     18     -20.5640      2.00000
     19     -20.1337      2.00000
     20     -20.1337      2.00000
     21     -19.6693      2.00000
     22     -19.6693      2.00000
     23     -19.6280      2.00000
     24     -19.6280      2.00000
     25      -9.1558      2.00000
     26      -9.1558      2.00000
     27      -5.4959      2.00000
     28      -5.4959      2.00000
     29      -5.0861      2.00000
     30      -5.0861      2.00000
     31      -3.9920      2.00000
     32      -3.9920      2.00000
     33      -3.3624      2.00000
     34      -3.3624      2.00000
     35      -3.0989      2.00000
     36      -3.0989      2.00000
     37      -2.7812      2.00000
     38      -2.7812      2.00000
     39      -2.3920      2.00000
     40      -2.3920      2.00000
     41      -1.9623      2.00000
     42      -1.9623      2.00000
     43      -1.2727      2.00000
     44      -1.2727      2.00000
     45      -0.9384      2.00000
     46      -0.9384      2.00000
     47      -0.4504      2.00000
     48      -0.4504      2.00000
     49       1.2065      2.00000
     50       1.2065      2.00000
     51       9.6735      0.00000
     52       9.6735      0.00000
     53       9.7442      0.00000
     54       9.7442      0.00000
     55      10.0845      0.00000
     56      10.0845      0.00000
     57      10.7877      0.00000
     58      10.7877      0.00000
     59      11.4252      0.00000
     60      11.4252      0.00000


--------------------------------------------------------------------------------------------------------


 soft charge-density along one line, spin component           1
         0         1         2         3         4         5         6         7         8         9
 total charge-density along one line
 
 pseudopotential strength for first ion, spin component:           1
  9.457 -11.302   0.031  -0.003  -0.002  -0.039   0.004   0.003
-11.302  13.502  -0.040   0.004   0.003   0.050  -0.005  -0.004
  0.031  -0.040  -5.531   0.031  -0.002   6.046  -0.041   0.003
 -0.003   0.004   0.031  -5.445  -0.020  -0.041   5.930   0.027
 -0.002   0.003  -0.002  -0.020  -5.481   0.003   0.027   5.979
 -0.039   0.050   6.046  -0.041   0.003  -6.245   0.055  -0.004
  0.004  -0.005  -0.041   5.930   0.027   0.055  -6.089  -0.036
  0.003  -0.004   0.003   0.027   5.979  -0.004  -0.036  -6.154
 total augmentation occupancy for first ion, spin component:           1
  2.781   0.438  -0.124   0.018   0.005  -0.048   0.007   0.002
  0.438   0.095  -0.096   0.011   0.007  -0.018   0.002   0.002
 -0.124  -0.096   2.372  -0.029   0.001   0.379  -0.031   0.003
  0.018   0.011  -0.029   2.267   0.012  -0.031   0.289   0.020
  0.005   0.007   0.001   0.012   2.240   0.003   0.021   0.313
 -0.048  -0.018   0.379  -0.031   0.003   0.069  -0.010   0.001
  0.007   0.002  -0.031   0.289   0.021  -0.010   0.041   0.007
  0.002   0.002   0.003   0.020   0.313   0.001   0.007   0.049


------------------------ aborting loop because EDIFF is reached ----------------------------------------


 


 total charge     
 
# of ion       s       p       d       tot
------------------------------------------
    1        1.582   3.566   0.000   5.148
    2        1.596   3.515   0.000   5.111
    3        1.583   3.559   0.000   5.142
    4        1.596   3.516   0.000   5.112
    5        1.582   3.566   0.000   5.148
    6        1.596   3.515   0.000   5.111
    7        1.583   3.559   0.000   5.142
    8        1.596   3.516   0.000   5.112
    9        0.524   6.593   3.143  10.260
   10        0.524   6.593   3.143  10.260
   11        1.812   0.627  10.037  12.476
   12        1.812   0.627  10.037  12.476
--------------------------------------------------
tot         17.384  42.753  26.362  86.498
 
    CHARGE:  cpu time    0.5880: real time    0.5895
    FORLOC:  cpu time    0.0200: real time    0.0187
    FORHF :  cpu time  303.6270: real time  303.8168
    FORNL :  cpu time    1.9681: real time    1.9704
    STRESS:  cpu time    6.2804: real time    6.2860
    FORCOR:  cpu time    0.1880: real time    0.1849
    FORHAR:  cpu time    0.0480: real time    0.0499
    MIXING:  cpu time    0.0040: real time    0.0019
    OFIELD:  cpu time    0.0000: real time    0.0001

  FORCE on cell =-STRESS in cart. coord.  units (eV):
  Direction    XX          YY          ZZ          XY          YZ          ZX
  --------------------------------------------------------------------------------------
  Alpha Z   450.71984   450.71984   450.71984
  Ewald   -2610.50635 -2572.03928 -2424.77843    38.74140    76.37578    47.35269
  Hartree   787.95625   814.15137   895.72668    26.38197    33.36031    20.68326
  E(xc)    -207.28103  -207.28950  -207.60057    -0.00854    -0.12181    -0.07552
  Local     -27.48846   -88.89499  -315.62290   -61.84451  -108.05151   -66.99151
  n-local   806.50112   806.42410   806.46073     0.06041     0.72415     0.31215
  augment   333.17947   332.74285   334.33500    -0.43973     0.54415     0.33799
  Kinetic  1637.15850  1634.61649  1636.86731    -3.14725    -1.10066    -0.31946
  Fock    -1170.48912 -1170.18133 -1176.10929     0.13204    -1.79100    -1.19716
  -------------------------------------------------------------------------------------
  Total       0.00051    -0.00074    -0.00163    -0.00126     0.00230     0.00142
  in kB       0.00550    -0.00805    -0.01777    -0.01365     0.02496     0.01547
  external pressure =       -0.01 kB  Pullay stress =        0.00 kB


 VOLUME and BASIS-vectors are now :
 -----------------------------------------------------------------------------
  energy-cutoff  :      950.00
  volume of cell :      147.36
      direct lattice vectors                 reciprocal lattice vectors
     6.765123845 -0.010979516  0.012830219     0.148208414  0.074182309 -0.142927582
    -3.018111138  6.054587215  0.012830219     0.000540048  0.165736108 -0.142927582
     1.928300872  3.110182674  3.613794748    -0.000528108 -0.000851793  0.277732316

  length of vectors
     6.765144921  6.765144921  5.143062609     0.218853930  0.218853930  0.277734124


 FORCES acting on ions
    electron-ion (+dipol)            ewald-force                    non-local-force                 convergence-correction
 -----------------------------------------------------------------------------------------------
   -.125E+02 -.734E+02 0.113E+02   0.116E+02 0.860E+02 -.127E+02   0.542E+00 -.862E+01 0.101E+01   -.138E-03 -.397E-04 0.102E-03
   0.136E+03 -.185E+02 0.132E+03   -.151E+03 0.214E+02 -.148E+03   0.104E+02 -.192E+01 0.111E+02   0.430E-03 -.147E-03 0.339E-03
   0.602E+02 0.438E+02 -.113E+02   -.718E+02 -.486E+02 0.127E+02   0.796E+01 0.335E+01 -.101E+01   -.257E-04 0.141E-03 -.102E-03
   0.770E+02 -.114E+03 -.132E+03   -.865E+02 0.126E+03 0.148E+03   0.634E+01 -.845E+01 -.111E+02   0.323E-03 -.320E-03 -.339E-03
   0.125E+02 0.734E+02 -.113E+02   -.116E+02 -.860E+02 0.127E+02   -.542E+00 0.862E+01 -.101E+01   0.138E-03 0.397E-04 -.102E-03
   -.136E+03 0.185E+02 -.132E+03   0.151E+03 -.214E+02 0.148E+03   -.104E+02 0.192E+01 -.111E+02   -.430E-03 0.147E-03 -.339E-03
   -.602E+02 -.438E+02 0.113E+02   0.718E+02 0.486E+02 -.127E+02   -.796E+01 -.335E+01 0.101E+01   0.257E-04 -.141E-03 0.102E-03
   -.770E+02 0.114E+03 0.132E+03   0.865E+02 -.126E+03 -.148E+03   -.634E+01 0.845E+01 0.111E+02   -.323E-03 0.320E-03 0.339E-03
   -.189E+02 0.117E+02 -.510E-10   0.174E+02 -.108E+02 -.101E-06   -.584E+00 0.362E+00 -.227E-12   -.327E-03 0.203E-03 0.124E-10
   0.189E+02 -.117E+02 0.432E-10   -.174E+02 0.108E+02 0.427E-05   0.584E+00 -.362E+00 0.227E-12   0.327E-03 -.203E-03 -.754E-11
   -.159E+03 0.986E+02 -.201E-08   0.169E+03 -.105E+03 -.289E-04   -.913E+01 0.566E+01 -.355E-11   0.686E-05 -.425E-05 -.108E-10
   0.159E+03 -.986E+02 0.200E-08   -.169E+03 0.105E+03 -.854E-05   0.913E+01 -.566E+01 0.355E-11   -.686E-05 0.425E-05 -.258E-10
 -----------------------------------------------------------------------------------------------
   0.801E-03 -.329E-03 0.145E-03   0.000E+00 0.853E-13 -.123E-12   0.355E-14 0.000E+00 0.177E-14   -.155E-09 0.125E-09 -.256E-10
 
 
 POSITION                                       TOTAL-FORCE (eV/Angst)
 -----------------------------------------------------------------------------------
      1.08238      6.32760      2.31373        -0.000049      0.000358     -0.000001
      5.52125      7.74820      3.22016         0.000026     -0.000051     -0.000056
      6.34480      3.89290      3.13262        -0.000342     -0.000115      0.000001
      4.02813      5.33992      2.23902         0.000057     -0.000001      0.000056
      4.59294      2.82619      1.32572         0.000049     -0.000358      0.000001
      0.15407      1.40559      0.41929        -0.000026      0.000051      0.000056
     -0.66949      5.26089      0.50684         0.000342      0.000115     -0.000001
      1.64719      3.81387      1.40044        -0.000057      0.000001     -0.000056
      1.09988      4.63906      2.71676         0.000030     -0.000018      0.000000
      4.57543      4.51473      0.92269        -0.000030      0.000018     -0.000000
      2.93662      7.68366      2.72959         0.000140     -0.000087      0.000000
      2.73870      1.47013      0.90986        -0.000140      0.000087     -0.000000
 -----------------------------------------------------------------------------------
    total drift:                                0.000801     -0.000329      0.000145


--------------------------------------------------------------------------------------------------------



  FREE ENERGIE OF THE ION-ELECTRON SYSTEM (eV)
  ---------------------------------------------------
  free  energy   TOTEN  =      -163.20295402 eV

  energy  without entropy=     -163.20295402  energy(sigma->0) =     -163.20295402
 
 d Force = 0.4643556E-06[-0.222E-07, 0.951E-06]  d Energy = 0.4915655E-06-0.272E-07
 d Force = 0.1167722E-01[ 0.117E-01, 0.117E-01]  d Ewald  =-0.3302744E-01 0.447E-01


--------------------------------------------------------------------------------------------------------


    POTLOK:  cpu time    0.8681: real time    0.8684


--------------------------------------------------------------------------------------------------------


 Quasi-Newton relaxation of ions (Broydens 2nd method)
  g(Force)  = 0.291E-07   g(Stress)= 0.853E-07

 retain information from N=  1 steps
 eigenvalues of (default step * inverse Hessian matrix)
  average eigenvalue of G=   0.1701
 eigenvalue spectrum of G is  0.1701


--------------------------------------------------------------------------------------------------------


  
 reached required accuracy - stopping structural energy minimisation
 writing wavefunctions
     LOOP+:  cpu time 3245.4268: real time 3271.6172
    4ORBIT:  cpu time    0.0000: real time    0.0000
 


 total charge     
 
# of ion       s       p       d       tot
------------------------------------------
    1        1.582   3.566   0.000   5.148
    2        1.596   3.515   0.000   5.111
    3        1.583   3.559   0.000   5.142
    4        1.596   3.516   0.000   5.112
    5        1.582   3.566   0.000   5.148
    6        1.596   3.515   0.000   5.111
    7        1.583   3.559   0.000   5.142
    8        1.596   3.516   0.000   5.112
    9        0.524   6.593   3.143  10.260
   10        0.524   6.593   3.143  10.260
   11        1.812   0.627  10.037  12.476
   12        1.812   0.627  10.037  12.476
--------------------------------------------------
tot         17.384  42.753  26.362  86.498
 
 BZINTS: Fermi energy:  1.677667;100.000000 electrons
         Band energy:***********;  BLOECHL correction:  0.000000

 total amount of memory used by VASP MPI-rank0   156318. kBytes
=======================================================================

   base      :      30000. kBytes
   nonl-proj :      10739. kBytes
   fftplans  :      32144. kBytes
   grid      :      14801. kBytes
   one-center:         31. kBytes
   HF        :        129. kBytes
   nonlr-proj:      44444. kBytes
   wavefun   :      24030. kBytes
 
  
  
 General timing and accounting informations for this job:
 ========================================================
  
                  Total CPU time used (sec):    21574.533
                            User time (sec):    21522.141
                          System time (sec):       52.391
                         Elapsed time (sec):    21686.421
  
                   Maximum memory used (kb):      193492.
                   Average memory used (kb):           0.
  
                          Minor page faults:      3190031
                          Major page faults:            0
                 Voluntary context switches:         4035
