PROCAR lm decomposed
# of k-points:   24         # of bands:   60         # of ions:   12

 k-point     1 :    0.00000000 0.00000000 0.00000000     weight = 0.01562500

band     1 # energy  -44.67399835 # occ.  2.00000000
 
ion      s     py     pz     px    dxy    dyz    dz2    dxz  x2-y2    tot
    1  0.000  0.000  0.000  0.000  0.000  0.000  0.000  0.000  0.000  0.000
    2  0.003  0.000  0.001  0.001  0.000  0.000  0.000  0.000  0.000  0.006
    3  0.000  0.000  0.000  0.000  0.000  0.000  0.000  0.000  0.000  0.000
    4  0.003  0.001  0.001  0.000  0.000  0.000  0.000  0.000  0.000  0.006
    5  0.000  0.000  0.000  0.000  0.000  0.000  0.000  0.000  0.000  0.000
    6  0.003  0.000  0.001  0.001  0.000  0.000  0.000  0.000  0.000  0.006
    7  0.000  0.000  0.000  0.000  0.000  0.000  0.000  0.000  0.000  0.000
    8  0.003  0.001  0.001  0.000  0.000  0.000  0.000  0.000  0.000  0.006
    9  0.000  0.045  0.425  0.017  0.000  0.000  0.000  0.000  0.000  0.488
   10  0.000  0.045  0.425  0.017  0.000  0.000  0.000  0.000  0.000  0.488
   11  0.000  0.000  0.000  0.000  0.000  0.000  0.000  0.000  0.000  0.000
   12  0.000  0.000  0.000  0.000  0.000  0.000  0.000  0.000  0.000  0.000
tot    0.014  0.092  0.856  0.038  0.000  0.000  0.000  0.001  0.000  1.001
 
band     2 # energy  -44.66964046 # occ.  2.00000000
 
ion      s     py     pz     px    dxy    dyz    dz2    dxz  x2-y2    tot
    1  0.000  0.000  0.000  0.000  0.000  0.000  0.000  0.000  0.000  0.000
    2  0.004  0.000  0.001  0.001  0.000  0.000  0.000  0.000  0.000  0.006
    3  0.000  0.000  0.000  0.000  0.000  0.000  0.000  0.000  0.000  0.000
    4  0.004  0.001  0.001  0.000  0.000  0.000  0.000  0.000  0.000  0.006
    5  0.000  0.000  0.000  0.000  0.000  0.000  0.000  0.000  0.000  0.000
    6  0.004  0.000  0.001  0.001  0.000  0.000  0.000  0.000  0.000  0.006
    7  0.000  0.000  0.000  0.000  0.000  0.000  0.000  0.000  0.000  0.000
    8  0.004  0.001  0.001  0.000  0.000  0.000  0.000  0.000  0.000  0.006
    9  0.000  0.042  0.429  0.016  0.000  0.000  0.000  0.000  0.000  0.488
   10  0.000  0.042  0.429  0.016  0.000  0.000  0.000  0.000  0.000  0.488
   11  0.000  0.000  0.000  0.000  0.000  0.000  0.000  0.000  0.000  0.000
   12  0.000  0.000  0.000  0.000  0.000  0.000  0.000  0.000  0.000  0.000
tot    0.014  0.086  0.863  0.036  0.000  0.000  0.000  0.001  0.000  1.001
 
band     3 # energy  -44.52702202 # occ.  2.00000000
 
ion      s     py     pz     px    dxy    dyz    dz2    dxz  x2-y2    tot
    1  0.001  0.000  0.000  0.000  0.000  0.000  0.000  0.000  0.000  0.001
    2  0.002  0.000  0.001  0.000  0.000  0.000  0.000  0.000  0.000  0.003
    3  0.001  0.000  0.000  0.000  0.000  0.000  0.000  0.000  0.000  0.001
    4  0.002  0.000  0.001  0.000  0.000  0.000  0.000  0.000  0.000  0.003
    5  0.001  0.000  0.000  0.000  0.000  0.000  0.000  0.000  0.000  0.001
    6  0.002  0.000  0.001  0.000  0.000  0.000  0.000  0.000  0.000  0.003
    7  0.001  0.000  0.000  0.000  0.000  0.000  0.000  0.000  0.000  0.001
    8  0.002  0.000  0.001  0.000  0.000  0.000  0.000  0.000  0.000  0.003
    9  0.000  0.136  0.000  0.354  0.000  0.000  0.000  0.000  0.000  0.490
   10  0.000  0.136  0.000  0.354  0.000  0.000  0.000  0.000  0.000  0.490
   11  0.000  0.000  0.000  0.000  0.000  0.000  0.000  0.000  0.000  0.000
   12  0.000  0.000  0.000  0.000  0.000  0.000  0.000  0.000  0.000  0.000
tot    0.009  0.274  0.004  0.708  0.000  0.000  0.000  0.000  0.000  0.996
 
band     4 # energy  -44.51025499 # occ.  2.00000000
 
ion      s     py     pz     px    dxy    dyz    dz2    dxz  x2-y2    tot
    1  0.001  0.001  0.000  0.000  0.000  0.000  0.000  0.000  0.000  0.001
    2  0.001  0.000  0.001  0.000  0.000  0.000  0.000  0.000  0.000  0.003
    3  0.001  0.000  0.000  0.000  0.000  0.000  0.000  0.000  0.000  0.001
    4  0.001  0.000  0.001  0.000  0.000  0.000  0.000  0.000  0.000  0.003
    5  0.001  0.001  0.000  0.000  0.000  0.000  0.000  0.000  0.000  0.001
    6  0.001  0.000  0.001  0.000  0.000  0.000  0.000  0.000  0.000  0.003
    7  0.001  0.000  0.000  0.000  0.000  0.000  0.000  0.000  0.000  0.001
    8  0.001  0.000  0.001  0.000  0.000  0.000  0.000  0.000  0.000  0.003
    9  0.000  0.136  0.000  0.354  0.000  0.000  0.000  0.000  0.000  0.490
   10  0.000  0.136  0.000  0.354  0.000  0.000  0.000  0.000  0.000  0.491
   11  0.000  0.000  0.000  0.000  0.000  0.000  0.000  0.000  0.000  0.000
   12  0.000  0.000  0.000  0.000  0.000  0.000  0.000  0.000  0.000  0.000
tot    0.009  0.274  0.004  0.709  0.000  0.000  0.000  0.000  0.000  0.997
 
band     5 # energy  -44.49207172 # occ.  2.00000000
 
ion      s     py     pz     px    dxy    dyz    dz2    dxz  x2-y2    tot
    1  0.002  0.001  0.000  0.000  0.000  0.000  0.000  0.000  0.000  0.003
    2  0.000  0.000  0.000  0.000  0.000  0.000  0.000  0.000  0.000  0.000
    3  0.002  0.000  0.000  0.001  0.000  0.000  0.000  0.000  0.000  0.003
    4  0.000  0.000  0.000  0.000  0.000  0.000  0.000  0.000  0.000  0.000
    5  0.002  0.001  0.000  0.000  0.000  0.000  0.000  0.000  0.000  0.003
    6  0.000  0.000  0.000  0.000  0.000  0.000  0.000  0.000  0.000  0.000
    7  0.002  0.000  0.000  0.001  0.000  0.000  0.000  0.000  0.000  0.003
    8  0.000  0.000  0.000  0.000  0.000  0.000  0.000  0.000  0.000  0.000
    9  0.000  0.309  0.063  0.119  0.000  0.000  0.000  0.000  0.000  0.490
   10  0.000  0.308  0.063  0.118  0.000  0.000  0.000  0.000  0.000  0.489
   11  0.000  0.000  0.000  0.000  0.000  0.000  0.000  0.000  0.000  0.000
   12  0.000  0.000  0.000  0.000  0.000  0.000  0.000  0.000  0.000  0.000
tot    0.008  0.620  0.126  0.240  0.000  0.000  0.000  0.000  0.000  0.994
 
band     6 # energy  -44.49028738 # occ.  2.00000000
 
ion      s     py     pz     px    dxy    dyz    dz2    dxz  x2-y2    tot
    1  0.002  0.001  0.000  0.000  0.000  0.000  0.000  0.000  0.000  0.003
    2  0.000  0.000  0.000  0.000  0.000  0.000  0.000  0.000  0.000  0.000
    3  0.002  0.000  0.000  0.001  0.000  0.000  0.000  0.000  0.000  0.003
    4  0.000  0.000  0.000  0.000  0.000  0.000  0.000  0.000  0.000  0.000
    5  0.002  0.001  0.000  0.000  0.000  0.000  0.000  0.000  0.000  0.003
    6  0.000  0.000  0.000  0.000  0.000  0.000  0.000  0.000  0.000  0.000
    7  0.002  0.000  0.000  0.001  0.000  0.000  0.000  0.000  0.000  0.003
    8  0.000  0.000  0.000  0.000  0.000  0.000  0.000  0.000  0.000  0.000
    9  0.000  0.311  0.059  0.119  0.000  0.000  0.000  0.000  0.000  0.490
   10  0.000  0.311  0.059  0.120  0.000  0.000  0.000  0.000  0.000  0.490
   11  0.000  0.000  0.000  0.000  0.000  0.000  0.000  0.000  0.000  0.000
   12  0.000  0.000  0.000  0.000  0.000  0.000  0.000  0.000  0.000  0.000
tot    0.008  0.625  0.118  0.242  0.000  0.000  0.000  0.000  0.000  0.994
 
band     7 # energy  -24.30902299 # occ.  2.00000000
 
ion      s     py     pz     px    dxy    dyz    dz2    dxz  x2-y2    tot
    1  0.011  0.000  0.000  0.000  0.000  0.000  0.000  0.000  0.000  0.011
    2  0.001  0.000  0.000  0.000  0.000  0.000  0.000  0.000  0.000  0.001
    3  0.011  0.000  0.000  0.000  0.000  0.000  0.000  0.000  0.000  0.011
    4  0.001  0.000  0.000  0.000  0.000  0.000  0.000  0.000  0.000  0.001
    5  0.011  0.000  0.000  0.000  0.000  0.000  0.000  0.000  0.000  0.011
    6  0.001  0.000  0.000  0.000  0.000  0.000  0.000  0.000  0.000  0.001
    7  0.011  0.000  0.000  0.000  0.000  0.000  0.000  0.000  0.000  0.011
    8  0.001  0.000  0.000  0.000  0.000  0.000  0.000  0.000  0.000  0.001
    9  0.000  0.000  0.000  0.000  0.000  0.000  0.000  0.000  0.000  0.001
   10  0.000  0.000  0.000  0.000  0.000  0.000  0.000  0.000  0.000  0.001
   11  0.000  0.000  0.000  0.000  0.223  0.037  0.132  0.014  0.055  0.461
   12  0.000  0.000  0.000  0.000  0.223  0.037  0.132  0.014  0.055  0.461
tot    0.047  0.001  0.000  0.001  0.447  0.074  0.265  0.028  0.110  0.972
 
band     8 # energy  -24.22261197 # occ.  2.00000000
 
ion      s     py     pz     px    dxy    dyz    dz2    dxz  x2-y2    tot
    1  0.008  0.000  0.000  0.000  0.000  0.000  0.000  0.000  0.000  0.008
    2  0.000  0.000  0.000  0.000  0.000  0.000  0.000  0.000  0.000  0.000
    3  0.008  0.000  0.000  0.000  0.000  0.000  0.000  0.000  0.000  0.008
    4  0.000  0.000  0.000  0.000  0.000  0.000  0.000  0.000  0.000  0.000
    5  0.008  0.000  0.000  0.000  0.000  0.000  0.000  0.000  0.000  0.008
    6  0.000  0.000  0.000  0.000  0.000  0.000  0.000  0.000  0.000  0.000
    7  0.008  0.000  0.000  0.000  0.000  0.000  0.000  0.000  0.000  0.008
    8  0.000  0.000  0.000  0.000  0.000  0.000  0.000  0.000  0.000  0.000
    9  0.000  0.000  0.000  0.000  0.000  0.000  0.000  0.000  0.000  0.001
   10  0.000  0.000  0.000  0.000  0.000  0.000  0.000  0.000  0.000  0.001
   11  0.000  0.000  0.000  0.000  0.007  0.121  0.000  0.316  0.027  0.470
   12  0.000  0.000  0.000  0.000  0.007  0.121  0.000  0.316  0.027  0.470
tot    0.032  0.001  0.001  0.001  0.013  0.243  0.000  0.631  0.054  0.975
 
band     9 # energy  -24.19904723 # occ.  2.00000000
 
ion      s     py     pz     px    dxy    dyz    dz2    dxz  x2-y2    tot
    1  0.009  0.000  0.000  0.000  0.000  0.000  0.000  0.000  0.000  0.009
    2  0.000  0.000  0.000  0.000  0.000  0.000  0.000  0.000  0.000  0.000
    3  0.009  0.000  0.000  0.000  0.000  0.000  0.000  0.000  0.000  0.009
    4  0.000  0.000  0.000  0.000  0.000  0.000  0.000  0.000  0.000  0.000
    5  0.009  0.000  0.000  0.000  0.000  0.000  0.000  0.000  0.000  0.009
    6  0.000  0.000  0.000  0.000  0.000  0.000  0.000  0.000  0.000  0.000
    7  0.009  0.000  0.000  0.000  0.000  0.000  0.000  0.000  0.000  0.009
    8  0.000  0.000  0.000  0.000  0.000  0.000  0.000  0.000  0.000  0.000
    9  0.000  0.000  0.000  0.000  0.000  0.000  0.000  0.000  0.000  0.001
   10  0.000  0.000  0.000  0.000  0.000  0.000  0.000  0.000  0.000  0.001
   11  0.000  0.000  0.000  0.000  0.030  0.088  0.000  0.229  0.121  0.469
   12  0.000  0.000  0.000  0.000  0.030  0.088  0.000  0.229  0.121  0.469
tot    0.036  0.001  0.000  0.001  0.060  0.176  0.000  0.459  0.243  0.976
 
band    10 # energy  -24.11840127 # occ.  2.00000000
 
ion      s     py     pz     px    dxy    dyz    dz2    dxz  x2-y2    tot
    1  0.001  0.000  0.000  0.000  0.000  0.000  0.000  0.000  0.000  0.002
    2  0.001  0.000  0.000  0.000  0.000  0.000  0.000  0.000  0.000  0.001
    3  0.001  0.000  0.000  0.000  0.000  0.000  0.000  0.000  0.000  0.002
    4  0.001  0.000  0.000  0.000  0.000  0.000  0.000  0.000  0.000  0.001
    5  0.001  0.000  0.000  0.000  0.000  0.000  0.000  0.000  0.000  0.002
    6  0.001  0.000  0.000  0.000  0.000  0.000  0.000  0.000  0.000  0.001
    7  0.001  0.000  0.000  0.000  0.000  0.000  0.000  0.000  0.000  0.002
    8  0.001  0.000  0.000  0.000  0.000  0.000  0.000  0.000  0.000  0.001
    9  0.000  0.000  0.000  0.000  0.000  0.000  0.000  0.000  0.000  0.000
   10  0.000  0.000  0.000  0.000  0.000  0.000  0.000  0.000  0.000  0.000
   11  0.000  0.000  0.000  0.000  0.104  0.058  0.275  0.022  0.026  0.486
   12  0.000  0.000  0.000  0.000  0.104  0.058  0.275  0.022  0.026  0.486
tot    0.008  0.001  0.000  0.001  0.209  0.117  0.551  0.045  0.051  0.984
 
band    11 # energy  -24.05424819 # occ.  2.00000000
 
ion      s     py     pz     px    dxy    dyz    dz2    dxz  x2-y2    tot
    1  0.000  0.000  0.000  0.000  0.000  0.000  0.000  0.000  0.000  0.000
    2  0.001  0.000  0.000  0.000  0.000  0.000  0.000  0.000  0.000  0.001
    3  0.000  0.000  0.000  0.000  0.000  0.000  0.000  0.000  0.000  0.000
    4  0.001  0.000  0.000  0.000  0.000  0.000  0.000  0.000  0.000  0.001
    5  0.000  0.000  0.000  0.000  0.000  0.000  0.000  0.000  0.000  0.000
    6  0.001  0.000  0.000  0.000  0.000  0.000  0.000  0.000  0.000  0.001
    7  0.000  0.000  0.000  0.000  0.000  0.000  0.000  0.000  0.000  0.000
    8  0.001  0.000  0.000  0.000  0.000  0.000  0.000  0.000  0.000  0.001
    9  0.000  0.000  0.000  0.000  0.000  0.000  0.000  0.000  0.000  0.000
   10  0.000  0.000  0.000  0.000  0.000  0.000  0.000  0.000  0.000  0.000
   11  0.000  0.000  0.000  0.000  0.090  0.010  0.000  0.025  0.364  0.489
   12  0.000  0.000  0.000  0.000  0.090  0.010  0.000  0.025  0.364  0.489
tot    0.004  0.001  0.001  0.001  0.179  0.020  0.000  0.051  0.728  0.984
 
band    12 # energy  -24.04823940 # occ.  2.00000000
 
ion      s     py     pz     px    dxy    dyz    dz2    dxz  x2-y2    tot
    1  0.001  0.000  0.000  0.000  0.000  0.000  0.000  0.000  0.000  0.001
    2  0.002  0.000  0.000  0.000  0.000  0.000  0.000  0.000  0.000  0.002
    3  0.001  0.000  0.000  0.000  0.000  0.000  0.000  0.000  0.000  0.001
    4  0.002  0.000  0.000  0.000  0.000  0.000  0.000  0.000  0.000  0.002
    5  0.001  0.000  0.000  0.000  0.000  0.000  0.000  0.000  0.000  0.001
    6  0.002  0.000  0.000  0.000  0.000  0.000  0.000  0.000  0.000  0.002
    7  0.001  0.000  0.000  0.000  0.000  0.000  0.000  0.000  0.000  0.001
    8  0.002  0.000  0.000  0.000  0.000  0.000  0.000  0.000  0.000  0.002
    9  0.000  0.000  0.000  0.000  0.000  0.000  0.000  0.000  0.000  0.001
   10  0.000  0.000  0.000  0.000  0.000  0.000  0.000  0.000  0.000  0.001
   11  0.000  0.000  0.000  0.000  0.113  0.002  0.341  0.001  0.028  0.485
   12  0.000  0.000  0.000  0.000  0.113  0.002  0.341  0.001  0.028  0.485
tot    0.012  0.000  0.001  0.000  0.226  0.003  0.683  0.001  0.056  0.982
 
band    13 # energy  -24.02409600 # occ.  2.00000000
 
ion      s     py     pz     px    dxy    dyz    dz2    dxz  x2-y2    tot
    1  0.000  0.000  0.000  0.000  0.000  0.000  0.000  0.000  0.000  0.000
    2  0.000  0.000  0.000  0.000  0.000  0.000  0.000  0.000  0.000  0.000
    3  0.000  0.000  0.000  0.000  0.000  0.000  0.000  0.000  0.000  0.000
    4  0.000  0.000  0.000  0.000  0.000  0.000  0.000  0.000  0.000  0.000
    5  0.000  0.000  0.000  0.000  0.000  0.000  0.000  0.000  0.000  0.000
    6  0.000  0.000  0.000  0.000  0.000  0.000  0.000  0.000  0.000  0.000
    7  0.000  0.000  0.000  0.000  0.000  0.000  0.000  0.000  0.000  0.000
    8  0.000  0.000  0.000  0.000  0.000  0.000  0.000  0.000  0.000  0.000
    9  0.000  0.000  0.000  0.000  0.000  0.000  0.000  0.000  0.000  0.000
   10  0.000  0.000  0.000  0.000  0.000  0.000  0.000  0.000  0.000  0.000
   11  0.000  0.000  0.000  0.000  0.096  0.264  0.008  0.101  0.024  0.493
   12  0.000  0.000  0.000  0.000  0.096  0.264  0.008  0.101  0.024  0.493
tot    0.001  0.000  0.000  0.000  0.192  0.527  0.017  0.203  0.047  0.987
 
band    14 # energy  -24.00950371 # occ.  2.00000000
 
ion      s     py     pz     px    dxy    dyz    dz2    dxz  x2-y2    tot
    1  0.000  0.000  0.000  0.000  0.000  0.000  0.000  0.000  0.000  0.000
    2  0.000  0.000  0.000  0.000  0.000  0.000  0.000  0.000  0.000  0.000
    3  0.000  0.000  0.000  0.000  0.000  0.000  0.000  0.000  0.000  0.000
    4  0.000  0.000  0.000  0.000  0.000  0.000  0.000  0.000  0.000  0.000
    5  0.000  0.000  0.000  0.000  0.000  0.000  0.000  0.000  0.000  0.000
    6  0.000  0.000  0.000  0.000  0.000  0.000  0.000  0.000  0.000  0.000
    7  0.000  0.000  0.000  0.000  0.000  0.000  0.000  0.000  0.000  0.000
    8  0.000  0.000  0.000  0.000  0.000  0.000  0.000  0.000  0.000  0.000
    9  0.000  0.000  0.000  0.000  0.000  0.000  0.000  0.000  0.000  0.000
   10  0.000  0.000  0.000  0.000  0.000  0.000  0.000  0.000  0.000  0.000
   11  0.000  0.000  0.000  0.000  0.039  0.315  0.008  0.121  0.010  0.494
   12  0.000  0.000  0.000  0.000  0.039  0.315  0.008  0.121  0.010  0.494
tot    0.001  0.000  0.000  0.000  0.079  0.630  0.016  0.242  0.019  0.988
 
band    15 # energy  -24.00095022 # occ.  2.00000000
 
ion      s     py     pz     px    dxy    dyz    dz2    dxz  x2-y2    tot
    1  0.000  0.000  0.000  0.000  0.000  0.000  0.000  0.000  0.000  0.000
    2  0.002  0.000  0.000  0.000  0.000  0.000  0.000  0.000  0.000  0.002
    3  0.000  0.000  0.000  0.000  0.000  0.000  0.000  0.000  0.000  0.000
    4  0.002  0.000  0.000  0.000  0.000  0.000  0.000  0.000  0.000  0.002
    5  0.000  0.000  0.000  0.000  0.000  0.000  0.000  0.000  0.000  0.000
    6  0.002  0.000  0.000  0.000  0.000  0.000  0.000  0.000  0.000  0.002
    7  0.000  0.000  0.000  0.000  0.000  0.000  0.000  0.000  0.000  0.000
    8  0.002  0.000  0.000  0.000  0.000  0.000  0.000  0.000  0.000  0.002
    9  0.000  0.000  0.000  0.000  0.000  0.000  0.000  0.000  0.000  0.000
   10  0.000  0.000  0.000  0.000  0.000  0.000  0.000  0.000  0.000  0.000
   11  0.000  0.000  0.000  0.000  0.065  0.044  0.000  0.115  0.265  0.489
   12  0.000  0.000  0.000  0.000  0.065  0.044  0.000  0.115  0.265  0.489
tot    0.007  0.000  0.000  0.000  0.130  0.088  0.000  0.230  0.529  0.986
 
band    16 # energy  -23.97952544 # occ.  2.00000000
 
ion      s     py     pz     px    dxy    dyz    dz2    dxz  x2-y2    tot
    1  0.001  0.000  0.000  0.000  0.000  0.000  0.000  0.000  0.000  0.001
    2  0.000  0.000  0.000  0.000  0.000  0.000  0.000  0.000  0.000  0.000
    3  0.001  0.000  0.000  0.000  0.000  0.000  0.000  0.000  0.000  0.001
    4  0.000  0.000  0.000  0.000  0.000  0.000  0.000  0.000  0.000  0.000
    5  0.001  0.000  0.000  0.000  0.000  0.000  0.000  0.000  0.000  0.001
    6  0.000  0.000  0.000  0.000  0.000  0.000  0.000  0.000  0.000  0.000
    7  0.001  0.000  0.000  0.000  0.000  0.000  0.000  0.000  0.000  0.001
    8  0.000  0.000  0.000  0.000  0.000  0.000  0.000  0.000  0.000  0.000
    9  0.000  0.000  0.000  0.000  0.000  0.000  0.000  0.000  0.000  0.000
   10  0.000  0.000  0.000  0.000  0.000  0.000  0.000  0.000  0.000  0.000
   11  0.000  0.000  0.000  0.000  0.194  0.034  0.204  0.013  0.048  0.492
   12  0.000  0.000  0.000  0.000  0.194  0.034  0.204  0.013  0.048  0.492
tot    0.002  0.000  0.000  0.000  0.388  0.067  0.407  0.026  0.096  0.987
 
band    17 # energy  -21.78343821 # occ.  2.00000000
 
ion      s     py     pz     px    dxy    dyz    dz2    dxz  x2-y2    tot
    1  0.133  0.000  0.000  0.000  0.000  0.000  0.000  0.000  0.000  0.133
    2  0.036  0.000  0.000  0.000  0.000  0.000  0.000  0.000  0.000  0.036
    3  0.133  0.000  0.000  0.000  0.000  0.000  0.000  0.000  0.000  0.133
    4  0.036  0.000  0.000  0.000  0.000  0.000  0.000  0.000  0.000  0.036
    5  0.133  0.000  0.000  0.000  0.000  0.000  0.000  0.000  0.000  0.133
    6  0.036  0.000  0.000  0.000  0.000  0.000  0.000  0.000  0.000  0.036
    7  0.133  0.000  0.000  0.000  0.000  0.000  0.000  0.000  0.000  0.133
    8  0.036  0.000  0.000  0.000  0.000  0.000  0.000  0.000  0.000  0.036
    9  0.028  0.000  0.000  0.000  0.001  0.000  0.000  0.000  0.000  0.029
   10  0.028  0.000  0.000  0.000  0.001  0.000  0.000  0.000  0.000  0.029
   11  0.028  0.001  0.000  0.002  0.000  0.000  0.002  0.000  0.000  0.033
   12  0.028  0.001  0.000  0.002  0.000  0.000  0.002  0.000  0.000  0.033
tot    0.786  0.002  0.000  0.004  0.002  0.001  0.004  0.000  0.000  0.800
 
band    18 # energy  -20.14908863 # occ.  2.00000000
 
ion      s     py     pz     px    dxy    dyz    dz2    dxz  x2-y2    tot
    1  0.040  0.000  0.000  0.000  0.000  0.000  0.000  0.000  0.000  0.040
    2  0.147  0.000  0.000  0.000  0.000  0.000  0.000  0.000  0.000  0.147
    3  0.040  0.000  0.000  0.000  0.000  0.000  0.000  0.000  0.000  0.040
    4  0.147  0.000  0.000  0.000  0.000  0.000  0.000  0.000  0.000  0.147
    5  0.040  0.000  0.000  0.000  0.000  0.000  0.000  0.000  0.000  0.040
    6  0.147  0.000  0.000  0.000  0.000  0.000  0.000  0.000  0.000  0.147
    7  0.040  0.000  0.000  0.000  0.000  0.000  0.000  0.000  0.000  0.040
    8  0.147  0.000  0.000  0.000  0.000  0.000  0.000  0.000  0.000  0.147
    9  0.006  0.005  0.000  0.012  0.003  0.006  0.014  0.002  0.001  0.051
   10  0.006  0.005  0.000  0.012  0.003  0.006  0.014  0.002  0.001  0.051
   11  0.000  0.001  0.000  0.004  0.000  0.000  0.004  0.000  0.000  0.011
   12  0.000  0.001  0.000  0.004  0.000  0.000  0.004  0.000  0.000  0.011
tot    0.760  0.013  0.001  0.033  0.008  0.014  0.038  0.005  0.002  0.872
 
band    19 # energy  -19.93369912 # occ.  2.00000000
 
ion      s     py     pz     px    dxy    dyz    dz2    dxz  x2-y2    tot
    1  0.177  0.000  0.000  0.000  0.000  0.000  0.000  0.000  0.000  0.177
    2  0.008  0.000  0.000  0.000  0.000  0.000  0.000  0.000  0.000  0.008
    3  0.177  0.000  0.000  0.000  0.000  0.000  0.000  0.000  0.000  0.177
    4  0.008  0.000  0.000  0.000  0.000  0.000  0.000  0.000  0.000  0.008
    5  0.177  0.000  0.000  0.000  0.000  0.000  0.000  0.000  0.000  0.177
    6  0.008  0.000  0.000  0.000  0.000  0.000  0.000  0.000  0.000  0.008
    7  0.177  0.000  0.000  0.000  0.000  0.000  0.000  0.000  0.000  0.177
    8  0.008  0.000  0.000  0.000  0.000  0.000  0.000  0.000  0.000  0.008
    9  0.000  0.009  0.005  0.003  0.004  0.000  0.000  0.000  0.016  0.037
   10  0.000  0.009  0.005  0.003  0.004  0.000  0.000  0.000  0.016  0.037
   11  0.000  0.003  0.002  0.001  0.003  0.003  0.000  0.008  0.011  0.030
   12  0.000  0.003  0.002  0.001  0.003  0.003  0.000  0.008  0.011  0.030
tot    0.738  0.024  0.013  0.009  0.013  0.006  0.000  0.015  0.054  0.873
 
band    20 # energy  -19.77907229 # occ.  2.00000000
 
ion      s     py     pz     px    dxy    dyz    dz2    dxz  x2-y2    tot
    1  0.182  0.000  0.000  0.000  0.000  0.000  0.000  0.000  0.000  0.183
    2  0.005  0.000  0.000  0.000  0.000  0.000  0.000  0.000  0.000  0.005
    3  0.182  0.000  0.000  0.000  0.000  0.000  0.000  0.000  0.000  0.183
    4  0.005  0.000  0.000  0.000  0.000  0.000  0.000  0.000  0.000  0.005
    5  0.182  0.000  0.000  0.000  0.000  0.000  0.000  0.000  0.000  0.183
    6  0.005  0.000  0.000  0.000  0.000  0.000  0.000  0.000  0.000  0.005
    7  0.182  0.000  0.000  0.000  0.000  0.000  0.000  0.000  0.000  0.183
    8  0.005  0.000  0.000  0.000  0.000  0.000  0.000  0.000  0.000  0.005
    9  0.000  0.012  0.000  0.005  0.003  0.001  0.000  0.002  0.013  0.036
   10  0.000  0.012  0.000  0.005  0.003  0.001  0.000  0.002  0.013  0.036
   11  0.000  0.001  0.003  0.001  0.001  0.005  0.000  0.013  0.003  0.028
   12  0.000  0.001  0.003  0.001  0.001  0.005  0.000  0.013  0.003  0.028
tot    0.748  0.028  0.007  0.011  0.008  0.012  0.000  0.031  0.032  0.877
 
band    21 # energy  -19.76297828 # occ.  2.00000000
 
ion      s     py     pz     px    dxy    dyz    dz2    dxz  x2-y2    tot
    1  0.130  0.001  0.000  0.000  0.000  0.000  0.000  0.000  0.000  0.131
    2  0.060  0.000  0.000  0.000  0.000  0.000  0.000  0.000  0.000  0.061
    3  0.130  0.000  0.000  0.001  0.000  0.000  0.000  0.000  0.000  0.131
    4  0.060  0.000  0.000  0.000  0.000  0.000  0.000  0.000  0.000  0.061
    5  0.130  0.001  0.000  0.000  0.000  0.000  0.000  0.000  0.000  0.131
    6  0.060  0.000  0.000  0.000  0.000  0.000  0.000  0.000  0.000  0.061
    7  0.130  0.000  0.000  0.001  0.000  0.000  0.000  0.000  0.000  0.131
    8  0.060  0.000  0.000  0.000  0.000  0.000  0.000  0.000  0.000  0.061
    9  0.036  0.000  0.000  0.000  0.001  0.000  0.000  0.000  0.000  0.037
   10  0.036  0.000  0.000  0.000  0.001  0.000  0.000  0.000  0.000  0.037
   11  0.000  0.000  0.000  0.000  0.018  0.001  0.000  0.000  0.004  0.024
   12  0.000  0.000  0.000  0.000  0.018  0.001  0.000  0.000  0.004  0.024
tot    0.835  0.002  0.001  0.003  0.037  0.002  0.000  0.001  0.009  0.889
 
band    22 # energy  -19.58584735 # occ.  2.00000000
 
ion      s     py     pz     px    dxy    dyz    dz2    dxz  x2-y2    tot
    1  0.007  0.000  0.000  0.000  0.000  0.000  0.000  0.000  0.000  0.007
    2  0.183  0.000  0.000  0.000  0.000  0.000  0.000  0.000  0.000  0.183
    3  0.007  0.000  0.000  0.000  0.000  0.000  0.000  0.000  0.000  0.007
    4  0.183  0.000  0.000  0.000  0.000  0.000  0.000  0.000  0.000  0.183
    5  0.007  0.000  0.000  0.000  0.000  0.000  0.000  0.000  0.000  0.007
    6  0.183  0.000  0.000  0.000  0.000  0.000  0.000  0.000  0.000  0.183
    7  0.007  0.000  0.000  0.000  0.000  0.000  0.000  0.000  0.000  0.007
    8  0.183  0.000  0.000  0.000  0.000  0.000  0.000  0.000  0.000  0.183
    9  0.000  0.004  0.020  0.002  0.000  0.009  0.000  0.023  0.001  0.059
   10  0.000  0.004  0.020  0.002  0.000  0.009  0.000  0.023  0.001  0.059
   11  0.000  0.000  0.001  0.000  0.000  0.002  0.000  0.005  0.000  0.010
   12  0.000  0.000  0.001  0.000  0.000  0.002  0.000  0.005  0.000  0.010
tot    0.759  0.009  0.043  0.004  0.001  0.022  0.000  0.058  0.002  0.898
 
band    23 # energy  -19.48291758 # occ.  2.00000000
 
ion      s     py     pz     px    dxy    dyz    dz2    dxz  x2-y2    tot
    1  0.056  0.000  0.000  0.000  0.000  0.000  0.000  0.000  0.000  0.056
    2  0.132  0.000  0.000  0.001  0.000  0.000  0.000  0.000  0.000  0.133
    3  0.056  0.000  0.000  0.000  0.000  0.000  0.000  0.000  0.000  0.056
    4  0.132  0.000  0.000  0.000  0.000  0.000  0.000  0.000  0.000  0.133
    5  0.056  0.000  0.000  0.000  0.000  0.000  0.000  0.000  0.000  0.056
    6  0.132  0.000  0.000  0.001  0.000  0.000  0.000  0.000  0.000  0.133
    7  0.056  0.000  0.000  0.000  0.000  0.000  0.000  0.000  0.000  0.056
    8  0.132  0.000  0.000  0.000  0.000  0.000  0.000  0.000  0.000  0.133
    9  0.004  0.004  0.000  0.012  0.004  0.008  0.019  0.003  0.001  0.056
   10  0.004  0.004  0.000  0.012  0.004  0.008  0.019  0.003  0.001  0.056
   11  0.001  0.000  0.000  0.000  0.004  0.003  0.013  0.001  0.001  0.023
   12  0.001  0.000  0.000  0.000  0.004  0.003  0.013  0.001  0.001  0.023
tot    0.763  0.010  0.001  0.026  0.018  0.022  0.063  0.008  0.004  0.916
 
band    24 # energy  -19.32461568 # occ.  2.00000000
 
ion      s     py     pz     px    dxy    dyz    dz2    dxz  x2-y2    tot
    1  0.005  0.000  0.000  0.000  0.000  0.000  0.000  0.000  0.000  0.005
    2  0.189  0.000  0.000  0.000  0.000  0.000  0.000  0.000  0.000  0.190
    3  0.005  0.000  0.000  0.000  0.000  0.000  0.000  0.000  0.000  0.005
    4  0.189  0.000  0.000  0.000  0.000  0.000  0.000  0.000  0.000  0.190
    5  0.005  0.000  0.000  0.000  0.000  0.000  0.000  0.000  0.000  0.005
    6  0.189  0.000  0.000  0.000  0.000  0.000  0.000  0.000  0.000  0.190
    7  0.005  0.000  0.000  0.000  0.000  0.000  0.000  0.000  0.000  0.005
    8  0.189  0.000  0.000  0.000  0.000  0.000  0.000  0.000  0.000  0.190
    9  0.000  0.000  0.025  0.000  0.001  0.009  0.000  0.022  0.004  0.061
   10  0.000  0.000  0.025  0.000  0.001  0.009  0.000  0.022  0.004  0.061
   11  0.000  0.001  0.001  0.000  0.000  0.001  0.000  0.002  0.001  0.006
   12  0.000  0.001  0.001  0.000  0.000  0.001  0.000  0.002  0.001  0.006
tot    0.776  0.003  0.053  0.002  0.003  0.019  0.000  0.048  0.011  0.914
 
band    25 # energy   -9.91832488 # occ.  2.00000000
 
ion      s     py     pz     px    dxy    dyz    dz2    dxz  x2-y2    tot
    1  0.000  0.000  0.007  0.026  0.000  0.000  0.000  0.000  0.000  0.033
    2  0.001  0.001  0.003  0.006  0.000  0.000  0.000  0.000  0.000  0.011
    3  0.000  0.020  0.007  0.006  0.000  0.000  0.000  0.000  0.000  0.033
    4  0.001  0.003  0.003  0.003  0.000  0.000  0.000  0.000  0.000  0.011
    5  0.000  0.000  0.007  0.026  0.000  0.000  0.000  0.000  0.000  0.033
    6  0.001  0.001  0.003  0.006  0.000  0.000  0.000  0.000  0.000  0.011
    7  0.000  0.020  0.007  0.006  0.000  0.000  0.000  0.000  0.000  0.033
    8  0.001  0.003  0.003  0.003  0.000  0.000  0.000  0.000  0.000  0.011
    9  0.000  0.000  0.000  0.000  0.007  0.000  0.000  0.000  0.002  0.009
   10  0.000  0.000  0.000  0.000  0.007  0.000  0.000  0.000  0.002  0.009
   11  0.300  0.000  0.000  0.001  0.000  0.000  0.000  0.000  0.000  0.301
   12  0.300  0.000  0.000  0.001  0.000  0.000  0.000  0.000  0.000  0.301
tot    0.603  0.048  0.043  0.082  0.015  0.000  0.001  0.000  0.004  0.794
 
band    26 # energy   -8.65640424 # occ.  2.00000000
 
ion      s     py     pz     px    dxy    dyz    dz2    dxz  x2-y2    tot
    1  0.010  0.030  0.008  0.000  0.000  0.000  0.000  0.000  0.000  0.048
    2  0.003  0.000  0.010  0.002  0.000  0.000  0.000  0.000  0.000  0.015
    3  0.010  0.009  0.008  0.021  0.000  0.000  0.000  0.000  0.000  0.048
    4  0.003  0.002  0.010  0.000  0.000  0.000  0.000  0.000  0.000  0.015
    5  0.010  0.030  0.008  0.000  0.000  0.000  0.000  0.000  0.000  0.048
    6  0.003  0.000  0.010  0.002  0.000  0.000  0.000  0.000  0.000  0.015
    7  0.010  0.009  0.008  0.021  0.000  0.000  0.000  0.000  0.000  0.048
    8  0.003  0.002  0.010  0.000  0.000  0.000  0.000  0.000  0.000  0.015
    9  0.038  0.000  0.000  0.000  0.000  0.000  0.003  0.000  0.000  0.041
   10  0.038  0.000  0.000  0.000  0.000  0.000  0.003  0.000  0.000  0.041
   11  0.267  0.000  0.000  0.000  0.000  0.000  0.000  0.000  0.000  0.267
   12  0.267  0.000  0.000  0.000  0.000  0.000  0.000  0.000  0.000  0.267
tot    0.661  0.083  0.072  0.048  0.002  0.000  0.005  0.000  0.000  0.872
 
band    27 # energy   -5.68142181 # occ.  2.00000000
 
ion      s     py     pz     px    dxy    dyz    dz2    dxz  x2-y2    tot
    1  0.000  0.031  0.008  0.010  0.000  0.000  0.000  0.000  0.000  0.048
    2  0.000  0.000  0.017  0.047  0.000  0.000  0.000  0.000  0.000  0.065
    3  0.000  0.000  0.008  0.041  0.000  0.000  0.000  0.000  0.000  0.048
    4  0.000  0.036  0.017  0.012  0.000  0.000  0.000  0.000  0.000  0.065
    5  0.000  0.031  0.008  0.010  0.000  0.000  0.000  0.000  0.000  0.048
    6  0.000  0.000  0.017  0.047  0.000  0.000  0.000  0.000  0.000  0.065
    7  0.000  0.000  0.008  0.041  0.000  0.000  0.000  0.000  0.000  0.048
    8  0.000  0.036  0.017  0.012  0.000  0.000  0.000  0.000  0.000  0.065