<?xml version="1.0" encoding="ISO-8859-1"?>
<modeling>
 <generator>
  <i name="program" type="string">vasp </i>
  <i name="version" type="string">5.4.4.18Apr17-6-g9f103f2a35  </i>
  <i name="subversion" type="string">(build Apr 27 2017 15:58:20) complex            parallel </i>
  <i name="platform" type="string">CrayXC-Intel16 </i>
  <i name="date" type="string">2020 06 01 </i>
  <i name="time" type="string">09:31:57 </i>
 </generator>
 <incar>
  <i type="string" name="SYSTEM">  ZnO_Bulk</i>
  <i type="int" name="ISTART">     1</i>
  <i type="string" name="PREC">accurate</i>
  <i type="int" name="IALGO">    38</i>
  <i type="logical" name="ADDGRID"> T  </i>
  <i type="int" name="NELM">   200</i>
  <i type="int" name="IBRION">     1</i>
  <i name="EDIFF">      0.00000001</i>
  <i name="EDIFFG">     -0.00040000</i>
  <i type="int" name="NSW">   500</i>
  <i type="int" name="ISIF">     3</i>
  <i type="int" name="IWAVPR">    11</i>
  <i type="int" name="ISYM">     1</i>
  <i name="SYMPREC">      0.00010000</i>
  <i type="int" name="NBLOCK">     1</i>
  <i type="int" name="KBLOCK">    40</i>
  <i name="ENMAX">    950.00000000</i>
  <i type="int" name="NBANDS">    60</i>
  <i type="logical" name="LREAL"> F  </i>
  <i name="TIME">      0.30000000</i>
  <i type="int" name="ISMEAR">    -5</i>
  <i name="SIGMA">      0.01000000</i>
  <i type="logical" name="LCORR"> T  </i>
  <i type="logical" name="LWAVE"> T  </i>
  <i type="logical" name="LCHARG"> F  </i>
  <i type="int" name="LORBIT">    11</i>
  <i type="logical" name="LASPH"> T  </i>
  <v type="int" name="KPOINT_BSE">    -1     0     0     0</v>
  <i type="int" name="NELM">   200</i>
  <i type="logical" name="LHFCALC"> T  </i>
  <i type="string" name="GGA"> PS</i>
  <i name="AEXX">      0.60000000</i>
  <i type="string" name="PRECFOCK">fast</i>
  <i type="logical" name="LASPH"> T  </i>
 </incar>
 <structure name="primitive_cell" >
  <crystal>
   <varray name="basis" >
    <v>       6.76512474      -0.01104897       0.01288287 </v>
    <v>      -3.01817375       6.05455713       0.01288287 </v>
    <v>       1.92829699       3.11017642       3.61394901 </v>
   </varray>
   <i name="volume">    147.36355642 </i>
   <varray name="rec_basis" >
    <v>       0.14821027       0.07418637      -0.14292568 </v>
    <v>       0.00054286       0.16573958      -0.14292568 </v>
    <v>      -0.00053027      -0.00085528       0.27772461 </v>
   </varray>
  </crystal>
  <varray name="positions" >
   <v>       0.29911750      -0.28140124      -0.36336453 </v>
   <v>       0.11885269       0.38114731      -0.25000000 </v>
   <v>       0.38490765       0.11509235       0.25000000 </v>
   <v>      -0.38490768      -0.11509232      -0.25000000 </v>
   <v>       0.06717409       0.17311033       0.11517325 </v>
   <v>       0.32688967       0.43282592       0.38482674 </v>
   <v>       0.21859877      -0.20088250       0.13663545 </v>
   <v>      -0.29911750       0.28140124       0.36336453 </v>
   <v>      -0.21859876       0.20088248      -0.13663547 </v>
   <v>      -0.06717408      -0.17311033      -0.11517326 </v>
   <v>      -0.11885269      -0.38114731       0.25000000 </v>
   <v>      -0.32688967      -0.43282592      -0.38482674 </v>
  </varray>
 </structure>
 <varray name="primitive_index" >
  <v type="int" >        1 </v>
  <v type="int" >        9 </v>
  <v type="int" >       12 </v>
  <v type="int" >       11 </v>
  <v type="int" >        6 </v>
  <v type="int" >        8 </v>
  <v type="int" >        7 </v>
  <v type="int" >        5 </v>
  <v type="int" >        3 </v>
  <v type="int" >        2 </v>
  <v type="int" >       10 </v>
  <v type="int" >        4 </v>
 </varray>
 <kpoints>
  <generation param="Gamma">
   <v type="int" name="divisions">       4        4        4 </v>
   <v name="usershift">      0.00000000       0.00000000       0.00000000 </v>
   <v name="genvec1">      0.25000000      -0.00000000       0.00000000 </v>
   <v name="genvec2">     -0.00000000       0.25000000       0.00000000 </v>
   <v name="genvec3">      0.00000000       0.00000000       0.25000000 </v>
   <v name="shift">      0.00000000       0.00000000       0.00000000 </v>
  </generation>
  <varray name="kpointlist" >
   <v>       0.00000000       0.00000000       0.00000000 </v>
   <v>       0.25000000       0.00000000       0.00000000 </v>
   <v>       0.50000000       0.00000000       0.00000000 </v>
   <v>       0.25000000       0.25000000       0.00000000 </v>
   <v>       0.50000000       0.25000000       0.00000000 </v>
   <v>      -0.25000000       0.25000000      -0.00000000 </v>
   <v>       0.50000000       0.50000000       0.00000000 </v>
   <v>      -0.00000000       0.00000000       0.25000000 </v>
   <v>       0.25000000       0.00000000       0.25000000 </v>
   <v>       0.50000000      -0.00000000       0.25000000 </v>
   <v>      -0.25000000      -0.00000000       0.25000000 </v>
   <v>       0.25000000       0.25000000       0.25000000 </v>
   <v>       0.50000000       0.25000000       0.25000000 </v>
   <v>      -0.25000000       0.25000000       0.25000000 </v>
   <v>       0.50000000       0.50000000       0.25000000 </v>
   <v>      -0.25000000       0.50000000       0.25000000 </v>
   <v>      -0.25000000      -0.25000000       0.25000000 </v>
   <v>      -0.00000000       0.00000000       0.50000000 </v>
   <v>       0.25000000       0.00000000       0.50000000 </v>
   <v>       0.50000000       0.00000000       0.50000000 </v>
   <v>       0.25000000       0.25000000       0.50000000 </v>
   <v>       0.50000000       0.25000000       0.50000000 </v>
   <v>      -0.25000000       0.25000000       0.50000000 </v>
   <v>       0.50000000       0.50000000       0.50000000 </v>
  </varray>
  <varray name="weights" >
   <v>       0.01562500 </v>
   <v>       0.06250000 </v>
   <v>       0.03125000 </v>
   <v>       0.03125000 </v>
   <v>       0.06250000 </v>
   <v>       0.03125000 </v>
   <v>       0.01562500 </v>
   <v>       0.03125000 </v>
   <v>       0.06250000 </v>
   <v>       0.06250000 </v>
   <v>       0.06250000 </v>
   <v>       0.03125000 </v>
   <v>       0.06250000 </v>
   <v>       0.06250000 </v>
   <v>       0.03125000 </v>
   <v>       0.06250000 </v>
   <v>       0.03125000 </v>
   <v>       0.01562500 </v>
   <v>       0.06250000 </v>
   <v>       0.03125000 </v>
   <v>       0.03125000 </v>
   <v>       0.06250000 </v>
   <v>       0.03125000 </v>
   <v>       0.01562500 </v>
  </varray>
  <varray name="tetrahedronlist"  type="int" >
   <v type="int" >        4        1        2        4       12 </v>
   <v type="int" >        4        1        2        9       12 </v>
   <v type="int" >        4        1        8        9       12 </v>
   <v type="int" >        4        2        4        5       13 </v>
   <v type="int" >        4        2        3        5       13 </v>
   <v type="int" >        4        2        3       10       13 </v>
   <v type="int" >        4        2        4       12       13 </v>
   <v type="int" >        4        2        9       12       13 </v>
   <v type="int" >        4        2        9       10       13 </v>
   <v type="int" >        4        3        5        6       14 </v>
   <v type="int" >        4        2        3        6       14 </v>
   <v type="int" >        4        2        3       11       14 </v>
   <v type="int" >        4        3        5       13       14 </v>
   <v type="int" >        4        3       10       13       14 </v>
   <v type="int" >        4        3       10       11       14 </v>
   <v type="int" >        4        2        2        6        9 </v>
   <v type="int" >        4        1        2        2        9 </v>
   <v type="int" >        4        1        2        8        9 </v>
   <v type="int" >        4        2        6        9       14 </v>
   <v type="int" >        4        2        9       11       14 </v>
   <v type="int" >        4        2        8        9       11 </v>
   <v type="int" >        4        4        5        7       15 </v>
   <v type="int" >        4        4        5       13       15 </v>
   <v type="int" >        4        4       12       13       15 </v>
   <v type="int" >        4        5        5        7       16 </v>
   <v type="int" >        4        5        5        6       16 </v>
   <v type="int" >        4        5        6       14       16 </v>
   <v type="int" >        4        5        7       15       16 </v>
   <v type="int" >        4        5       13       15       16 </v>
   <v type="int" >        4        5       13       14       16 </v>
   <v type="int" >        4        3        5        6       10 </v>
   <v type="int" >        4        2        3        6       10 </v>
   <v type="int" >        4        2        6        9       10 </v>
   <v type="int" >        4        5        6       10       16 </v>
   <v type="int" >        4        6       10       14       16 </v>
   <v type="int" >        4        6        9       10       14 </v>
   <v type="int" >        4        4        5        7       17 </v>
   <v type="int" >        4        5        7       16       17 </v>
   <v type="int" >        4        7       15       16       17 </v>
   <v type="int" >        4        2        4        5       11 </v>
   <v type="int" >        4        2        3        5       11 </v>
   <v type="int" >        4        3        5       10       11 </v>
   <v type="int" >        4        4        5       11       17 </v>
   <v type="int" >        4        5       11       16       17 </v>
   <v type="int" >        4        5       10       11       16 </v>
   <v type="int" >        4        1        2        4        8 </v>
   <v type="int" >        4        2        4        8       11 </v>
   <v type="int" >        4        4        8       11       17 </v>
   <v type="int" >        4        8        9       12       21 </v>
   <v type="int" >        4        8        9       19       21 </v>
   <v type="int" >        4        8       18       19       21 </v>
   <v type="int" >        4        9       12       13       22 </v>
   <v type="int" >        4        9       10       13       22 </v>
   <v type="int" >        4        9       10       20       22 </v>
   <v type="int" >        4        9       12       21       22 </v>
   <v type="int" >        4        9       19       21       22 </v>
   <v type="int" >        4        9       19       20       22 </v>
   <v type="int" >        4       10       13       14       23 </v>
   <v type="int" >        4       10       11       14       23 </v>
   <v type="int" >        4       10       11       19       23 </v>
   <v type="int" >        4       10       13       22       23 </v>
   <v type="int" >        4       10       20       22       23 </v>
   <v type="int" >        4       10       19       20       23 </v>
   <v type="int" >        4        9       11       14       19 </v>
   <v type="int" >        4        8        9       11       19 </v>
   <v type="int" >        4        8       11       18       19 </v>
   <v type="int" >        4       11       14       19       23 </v>
   <v type="int" >        4       11       19       19       23 </v>
   <v type="int" >        4       11       18       19       19 </v>
   <v type="int" >        4       12       13       15       24 </v>
   <v type="int" >        4       12       13       22       24 </v>
   <v type="int" >        4       12       21       22       24 </v>
   <v type="int" >        4       13       15       16       22 </v>
   <v type="int" >        4       13       14       16       22 </v>
   <v type="int" >        4       13       14       22       23 </v>
   <v type="int" >        4       13       15       22       24 </v>
   <v type="int" >        4       13       22       22       24 </v>
   <v type="int" >        4       13       22       22       23 </v>
   <v type="int" >        4       10       14       16       20 </v>
   <v type="int" >        4        9       10       14       20 </v>
   <v type="int" >        4        9       14       19       20 </v>
   <v type="int" >        4       14       16       20       22 </v>
   <v type="int" >        4       14       20       22       23 </v>
   <v type="int" >        4       14       19       20       23 </v>
   <v type="int" >        4       15       16       17       21 </v>
   <v type="int" >        4       15       16       21       22 </v>
   <v type="int" >        4       15       21       22       24 </v>
   <v type="int" >        4       11       16       17       19 </v>
   <v type="int" >        4       10       11       16       19 </v>
   <v type="int" >        4       10       16       19       20 </v>
   <v type="int" >        4       16       17       19       21 </v>
   <v type="int" >        4       16       19       21       22 </v>
   <v type="int" >        4       16       19       20       22 </v>
   <v type="int" >        4        8       11       17       18 </v>
   <v type="int" >        4       11       17       18       19 </v>
   <v type="int" >        4       17       18       19       21 </v>
  </varray>
  <i name="volumeweight">      0.00260417 </i>
 </kpoints>
 <parameters>
  <separator name="general" >
   <i type="string" name="SYSTEM">ZnO_Bulk</i>
   <i type="logical" name="LCOMPAT"> F  </i>
  </separator>
  <separator name="electronic" >
   <i type="string" name="PREC">accura</i>
   <i name="ENMAX">    950.00000000</i>
   <i name="ENAUG">    605.39200000</i>
   <i name="EDIFF">      0.00000001</i>
   <i type="int" name="IALGO">    38</i>
   <i type="int" name="IWAVPR">    11</i>
   <i type="int" name="NBANDS">    60</i>
   <i name="NELECT">    100.00000000</i>
   <i type="int" name="TURBO">     0</i>
   <i type="int" name="IRESTART">     0</i>
   <i type="int" name="NREBOOT">     0</i>
   <i type="int" name="NMIN">     0</i>
   <i name="EREF">      0.00000000</i>
   <separator name="electronic smearing" >
    <i type="int" name="ISMEAR">    -5</i>
    <i name="SIGMA">      0.01000000</i>
    <i name="KSPACING">      0.50000000</i>
    <i type="logical" name="KGAMMA"> T  </i>
   </separator>
   <separator name="electronic projectors" >
    <i type="logical" name="LREAL"> F  </i>
    <v name="ROPT">      0.00000000      0.00000000      0.00000000</v>
    <i type="int" name="LMAXPAW">  -100</i>
    <i type="int" name="LMAXMIX">     2</i>
    <i type="logical" name="NLSPLINE"> F  </i>
   </separator>
   <separator name="electronic startup" >
    <i type="int" name="ISTART">     1</i>
    <i type="int" name="ICHARG">     0</i>
    <i type="int" name="INIWAV">     1</i>
   </separator>
   <separator name="electronic spin" >
    <i type="int" name="ISPIN">     1</i>
    <i type="logical" name="LNONCOLLINEAR"> F  </i>
    <v name="MAGMOM">      1.00000000      1.00000000      1.00000000      1.00000000      1.00000000      1.00000000      1.00000000      1.00000000      1.00000000      1.00000000      1.00000000      1.00000000</v>
    <i name="NUPDOWN">     -1.00000000</i>
    <i type="logical" name="LSORBIT"> F  </i>
    <v name="SAXIS">      0.00000000      0.00000000      1.00000000</v>
    <i type="logical" name="LSPIRAL"> F  </i>
    <v name="QSPIRAL">      0.00000000      0.00000000      0.00000000</v>
    <i type="logical" name="LZEROZ"> F  </i>
   </separator>
   <separator name="electronic exchange-correlation" >
    <i type="logical" name="LASPH"> T  </i>
    <i type="logical" name="LMETAGGA"> F  </i>
   </separator>
   <separator name="electronic convergence" >
    <i type="int" name="NELM">   200</i>
    <i type="int" name="NELMDL">     0</i>
    <i type="int" name="NELMIN">     2</i>
    <i name="ENINI">    950.00000000</i>
    <separator name="electronic convergence detail" >
     <i type="logical" name="LDIAG"> T  </i>
     <i type="logical" name="LSUBROT"> F  </i>
     <i name="WEIMIN">      0.00100000</i>
     <i name="EBREAK">      0.00000000</i>
     <i name="DEPER">      0.30000000</i>
     <i type="int" name="NRMM">     4</i>
     <i name="TIME">      0.30000000</i>
    </separator>
   </separator>
   <separator name="electronic mixer" >
    <i name="AMIX">      0.40000000</i>
    <i name="BMIX">      1.00000000</i>
    <i name="AMIN">      0.10000000</i>
    <i name="AMIX_MAG">      1.60000000</i>
    <i name="BMIX_MAG">      1.00000000</i>
    <separator name="electronic mixer details" >
     <i type="int" name="IMIX">     1</i>
     <i type="logical" name="MIXFIRST"> F  </i>
     <i type="int" name="MAXMIX">   -45</i>
     <i name="WC">    100.00000000</i>
     <i type="int" name="INIMIX">     1</i>
     <i type="int" name="MIXPRE">     1</i>
     <i type="int" name="MREMOVE">     5</i>
    </separator>
   </separator>
   <separator name="electronic dipolcorrection" >
    <i type="logical" name="LDIPOL"> F  </i>
    <i type="logical" name="LMONO"> F  </i>
    <i type="int" name="IDIPOL">     0</i>
    <i name="EPSILON">      1.00000000</i>
    <v name="DIPOL">   -100.00000000   -100.00000000   -100.00000000</v>
    <i name="EFIELD">      0.00000000</i>
   </separator>
  </separator>
  <separator name="grids" >
   <i type="int" name="NGX">    70</i>
   <i type="int" name="NGY">    70</i>
   <i type="int" name="NGZ">    54</i>
   <i type="int" name="NGXF">   140</i>
   <i type="int" name="NGYF">   140</i>
   <i type="int" name="NGZF">   108</i>
   <i type="logical" name="ADDGRID"> T  </i>
  </separator>
  <separator name="ionic" >
   <i type="int" name="NSW">   480</i>
   <i type="int" name="IBRION">     1</i>
   <i type="int" name="MDALGO">     0</i>
   <i type="int" name="ISIF">     3</i>
   <i name="PSTRESS">      0.00000000</i>
   <i name="EDIFFG">     -0.00040000</i>
   <i type="int" name="NFREE">     0</i>
   <i name="POTIM">      0.50000000</i>
   <i name="SMASS">     -3.00000000</i>
   <i name="SCALEE">      1.00000000</i>
  </separator>
  <separator name="ionic md" >
   <i name="TEBEG">      0.00010000</i>
   <i name="TEEND">      0.00010000</i>
   <i type="int" name="NBLOCK">     1</i>
   <i type="int" name="KBLOCK">    40</i>
   <i type="int" name="NPACO">   256</i>
   <i name="APACO">     16.00000000</i>
  </separator>
  <separator name="symmetry" >
   <i type="int" name="ISYM">     1</i>
   <i name="SYMPREC">      0.00010000</i>
  </separator>
  <separator name="dos" >
   <i type="int" name="LORBIT">    11</i>
   <v name="RWIGS">     -1.00000000     -1.00000000     -1.00000000</v>
   <i type="int" name="NEDOS">   301</i>
   <i name="EMIN">     10.00000000</i>
   <i name="EMAX">    -10.00000000</i>
   <i name="EFERMI">      0.00000000</i>
  </separator>
  <separator name="writing" >
   <i type="int" name="NWRITE">     2</i>
   <i type="logical" name="LWAVE"> T  </i>
   <i type="logical" name="LDOWNSAMPLE"> F  </i>
   <i type="logical" name="LCHARG"> F  </i>
   <i type="logical" name="LPARD"> F  </i>
   <i type="logical" name="LVTOT"> F  </i>
   <i type="logical" name="LVHAR"> F  </i>
   <i type="logical" name="LELF"> F  </i>
   <i type="logical" name="LOPTICS"> F  </i>
   <v name="STM">      0.00000000      0.00000000      0.00000000      0.00000000      0.00000000      0.00000000      0.00000000</v>
  </separator>
  <separator name="performance" >
   <i type="int" name="NPAR">     1</i>
   <i type="int" name="NSIM">     4</i>
   <i type="int" name="NBLK">    -1</i>
   <i type="logical" name="LPLANE"> T  </i>
   <i type="logical" name="LSCALAPACK"> T  </i>
   <i type="logical" name="LSCAAWARE"> F  </i>
   <i type="logical" name="LSCALU"> F  </i>
   <i type="logical" name="LASYNC"> F  </i>
   <i type="logical" name="LORBITALREAL"> F  </i>
  </separator>
  <separator name="miscellaneous" >
   <i type="int" name="IDIOT">     3</i>
   <i type="int" name="ISPECIAL">     0</i>
   <i type="logical" name="LMUSIC"> F  </i>
   <v name="POMASS">     16.00000000     50.94100000    208.98000000</v>
   <v name="DARWINR">      0.00000000      0.00000000      0.00000000</v>
   <v name="DARWINV">      1.00000000      1.00000000      1.00000000</v>
   <i type="logical" name="LCORR"> T  </i>
  </separator>
  <i type="logical" name="GGA_COMPAT"> T  </i>
  <i type="logical" name="LBERRY"> F  </i>
  <i type="int" name="ICORELEVEL">     0</i>
  <i type="logical" name="LDAU"> F  </i>
  <i type="int" name="I_CONSTRAINED_M">     0</i>
  <separator name="electronic exchange-correlation" >
   <i type="string" name="GGA">PS</i>
   <i type="int" name="VOSKOWN">     0</i>
   <i type="logical" name="LHFCALC"> T  </i>
   <i type="string" name="PRECFOCK">fast</i>
   <i type="logical" name="LSYMGRAD"> F  </i>
   <i type="logical" name="LHFONE"> F  </i>
   <i type="logical" name="LRHFCALC"> F  </i>
   <i type="logical" name="LTHOMAS"> F  </i>
   <i type="logical" name="LMODELHF"> F  </i>
   <i name="ENCUT4O">     -1.00000000</i>
   <i type="int" name="EXXOEP">     0</i>
   <i type="int" name="FOURORBIT">     0</i>
   <i name="AEXX">      0.60000000</i>
   <i name="HFALPHA">     -1.00000000</i>
   <i name="MCALPHA">      0.00000000</i>
   <i name="ALDAX">      0.40000000</i>
   <i name="AGGAX">      0.40000000</i>
   <i name="ALDAC">      1.00000000</i>
   <i name="AGGAC">      1.00000000</i>
   <i type="int" name="NKREDX">     1</i>
   <i type="int" name="NKREDY">     1</i>
   <i type="int" name="NKREDZ">     1</i>
   <i type="logical" name="SHIFTRED"> F  </i>
   <i type="logical" name="ODDONLY"> F  </i>
   <i type="logical" name="EVENONLY"> F  </i>
   <i type="int" name="LMAXFOCK">     4</i>
   <i type="int" name="NMAXFOCKAE">     1</i>
   <i type="logical" name="LFOCKAEDFT"> F  </i>
   <i name="HFSCREEN">      0.00000000</i>
   <i name="HFSCREENC">      0.00000000</i>
   <i type="int" name="NBANDSGWLOW">     1</i>
  </separator>
  <separator name="vdW DFT" >
   <i type="logical" name="LUSE_VDW"> F  </i>
   <i name="Zab_VDW">     -0.84910000</i>
   <i name="PARAM1">      0.12340000</i>
   <i name="PARAM2">      1.00000000</i>
   <i name="PARAM3">      0.00000000</i>
  </separator>
  <separator name="model GW" >
   <i type="int" name="MODEL_GW">     0</i>
   <i name="MODEL_EPS0">      7.36817782</i>
   <i name="MODEL_ALPHA">      1.00000000</i>
  </separator>
  <separator name="linear response parameters" >
   <i type="logical" name="LEPSILON"> F  </i>
   <i type="logical" name="LRPA"> F  </i>
   <i type="logical" name="LNABLA"> F  </i>
   <i type="logical" name="LVEL"> F  </i>
   <i type="int" name="KINTER">     0</i>
   <i name="CSHIFT">      0.10000000</i>
   <i name="OMEGAMAX">     -1.00000000</i>
   <i name="DEG_THRESHOLD">      0.00200000</i>
   <i name="RTIME">     -0.10000000</i>
   <i name="WPLASMAI">      0.00000000</i>
   <v name="DFIELD">      0.00000000      0.00000000      0.00000000</v>
   <v name="WPLASMA">      0.00000000      0.00000000      0.00000000      0.00000000      0.00000000      0.00000000      0.00000000      0.00000000      0.00000000</v>
  </separator>
  <separator name="orbital magnetization" >
   <i type="logical" name="NUCIND"> F  </i>
   <v name="MAGPOS">      0.00000000      0.00000000      0.00000000</v>
   <i type="logical" name="LNICSALL"> T  </i>
   <i type="logical" name="ORBITALMAG"> F  </i>
   <i type="logical" name="LMAGBLOCH"> F  </i>
   <i type="logical" name="LCHIMAG"> F  </i>
   <i type="logical" name="LGAUGE"> T  </i>
   <i type="int" name="MAGATOM">     0</i>
   <v name="MAGDIPOL">      0.00000000      0.00000000      0.00000000</v>
   <v name="AVECCONST">      0.00000000      0.00000000      0.00000000</v>
  </separator>
  <separator name="response functions" >
   <i type="logical" name="LADDER"> F  </i>
   <i type="logical" name="LRPAFORCE"> F  </i>
   <i type="logical" name="LFXC"> F  </i>
   <i type="logical" name="LHARTREE"> T  </i>
   <i type="int" name="IBSE">     0</i>
   <v type="int" name="KPOINT">    -1     0     0     0</v>
   <i type="logical" name="LTCTE"> F  </i>
   <i type="logical" name="LTETE"> F  </i>
   <i type="logical" name="LTRIPLET"> F  </i>
   <i type="logical" name="LFXCEPS"> F  </i>
   <i type="logical" name="LFXHEG"> F  </i>
   <i type="int" name="NATURALO">     2</i>
   <i type="logical" name="L2ORDER"> F  </i>
   <i type="logical" name="LMP2LT"> F  </i>
   <i type="logical" name="LUSEW"> F  </i>
   <i name="ENCUTGW">     -2.00000000</i>
   <i name="ENCUTGWSOFT">     -2.00000000</i>
   <i name="ENCUTLF">     -1.00000000</i>
   <i type="int" name="LMAXMP2">    -1</i>
   <i name="SCISSOR">      0.00000000</i>
   <i type="int" name="NOMEGA">     0</i>
   <i type="int" name="NOMEGAR">     0</i>
   <i type="int" name="NBANDSGW">    -1</i>
   <i type="int" name="NBANDSO">    -1</i>
   <i type="int" name="NBANDSV">    -1</i>
   <i type="int" name="NELM">   200</i>
   <i type="int" name="NELMHF">     1</i>
   <i type="int" name="DIM">     3</i>
   <i type="int" name="ANTIRES">     0</i>
   <i name="OMEGAMAX">    -30.00000000</i>
   <i name="OMEGAMIN">    -30.00000000</i>
   <i name="OMEGATL">   -200.00000000</i>
   <i type="int" name="OMEGAGRID">   140</i>
   <i name="CSHIFT">     -0.10000000</i>
   <i type="logical" name="SELFENERGY"> F  </i>
   <i type="logical" name="LSPECTRAL"> F  </i>
   <i type="logical" name="LSPECTRALGW"> F  </i>
   <i type="logical" name="LSINGLES"> F  </i>
   <i type="logical" name="LFERMIGW"> F  </i>
   <i type="logical" name="ODDONLYGW"> F  </i>
   <i type="logical" name="EVENONLYGW"> F  </i>
   <i type="int" name="NKREDLFX">     1</i>
   <i type="int" name="NKREDLFY">     1</i>
   <i type="int" name="NKREDLFZ">     1</i>
   <i type="int" name="MAXMEM">  2800</i>
   <i type="int" name="TELESCOPE">     0</i>
   <i type="int" name="TAUPAR">     1</i>
   <i type="int" name="OMEGAPAR">    -1</i>
   <i name="LAMBDA">      1.00000000</i>
  </separator>
  <separator name="External order field" >
   <i name="OFIELD_KAPPA">      0.00000000</i>
   <v name="OFIELD_K">      0.00000000      0.00000000      0.00000000</v>
   <i name="OFIELD_Q6_NEAR">      0.00000000</i>
   <i name="OFIELD_Q6_FAR">      0.00000000</i>
   <i name="OFIELD_A">      0.00000000</i>
  </separator>
 </parameters>
 <atominfo>
  <atoms>      12 </atoms>
  <types>       3 </types>
  <array name="atoms" >
   <dimension dim="1">ion</dimension>
   <field type="string">element</field>
   <field type="int">atomtype</field>
   <set>
    <rc><c>O </c><c>   1</c></rc>
    <rc><c>O </c><c>   1</c></rc>
    <rc><c>O </c><c>   1</c></rc>
    <rc><c>O </c><c>   1</c></rc>
    <rc><c>O </c><c>   1</c></rc>
    <rc><c>O </c><c>   1</c></rc>
    <rc><c>O </c><c>   1</c></rc>
    <rc><c>O </c><c>   1</c></rc>
    <rc><c>V </c><c>   2</c></rc>
    <rc><c>V </c><c>   2</c></rc>
    <rc><c>Bi</c><c>   3</c></rc>
    <rc><c>Bi</c><c>   3</c></rc>
   </set>
  </array>
  <array name="atomtypes" >
   <dimension dim="1">type</dimension>
   <field type="int">atomspertype</field>
   <field type="string">element</field>
   <field>mass</field>
   <field>valence</field>
   <field type="string">pseudopotential</field>
   <set>
    <rc><c>   8</c><c>O </c><c>     16.00000000</c><c>      6.00000000</c><c>  PAW_PBE O 08Apr2002                   </c></rc>
    <rc><c>   2</c><c>V </c><c>     50.94100000</c><c>     11.00000000</c><c>  PAW_PBE V_pv 07Sep2000                </c></rc>
    <rc><c>   2</c><c>Bi</c><c>    208.98000000</c><c>     15.00000000</c><c>  PAW_PBE Bi_d 06Sep2000                </c></rc>
   </set>
  </array>
 </atominfo>
 <structure name="initialpos" >
  <crystal>
   <varray name="basis" >
    <v>       6.76512474      -0.01104897       0.01288287 </v>
    <v>      -3.01817375       6.05455713       0.01288287 </v>
    <v>       1.92829699       3.11017642       3.61394901 </v>
   </varray>
   <i name="volume">    147.36355642 </i>
   <varray name="rec_basis" >
    <v>       0.14821027       0.07418637      -0.14292568 </v>
    <v>       0.00054286       0.16573958      -0.14292568 </v>
    <v>      -0.00053027      -0.00085528       0.27772461 </v>
   </varray>
  </crystal>
  <varray name="positions" >
   <v>       0.29911750       0.71859876       0.63663547 </v>
   <v>       0.93282592       0.82688967       0.88482674 </v>
   <v>       0.78140124       0.20088248       0.86336453 </v>
   <v>       0.67311033       0.56717408       0.61517326 </v>
   <v>       0.70088250       0.28140124       0.36336453 </v>
   <v>       0.06717409       0.17311033       0.11517325 </v>
   <v>       0.21859877       0.79911750       0.13663545 </v>
   <v>       0.32688967       0.43282592       0.38482674 </v>
   <v>       0.11885269       0.38114731       0.75000000 </v>
   <v>       0.88114731       0.61885269       0.25000000 </v>
   <v>       0.61509232       0.88490768       0.75000000 </v>
   <v>       0.38490765       0.11509235       0.25000000 </v>
  </varray>
 </structure>
 <calculation>
  <scstep>
   <time name="dav">  433.90  434.18</time>
   <time name="total">  435.17  435.46</time>
   <energy>
    <i name="alphaZ">    450.71183415 </i>
    <i name="ewald">  -7607.28588137 </i>
    <i name="hartreedc">  -2497.83534533 </i>
    <i name="XCdc">    168.64281103 </i>
    <i name="pawpsdc">  13778.80402222 </i>
    <i name="pawaedc"> -13657.52232741 </i>
    <i name="eentropy">      0.00000000 </i>
    <i name="bandstr">  -1492.51187999 </i>
    <i name="atom">   9926.69705820 </i>
    <i name="e_fr_energy">   -163.20295418 </i>
    <i name="e_wo_entrp">   -163.20295418 </i>
    <i name="e_0_energy">   -163.20295418 </i>
   </energy>
  </scstep>
  <scstep>
   <time name="dav">  289.27  289.45</time>
   <time name="total">  289.95  290.15</time>
   <energy>
    <i name="alphaZ">    450.71183415 </i>
    <i name="ewald">  -7607.28588137 </i>
    <i name="hartreedc">  -2497.83574564 </i>
    <i name="XCdc">    168.64281726 </i>
    <i name="pawpsdc">  13778.79856643 </i>
    <i name="pawaedc"> -13657.51683650 </i>
    <i name="eentropy">      0.00000000 </i>
    <i name="bandstr">  -1492.51156095 </i>
    <i name="atom">   9926.69705820 </i>
    <i name="e_fr_energy">   -163.20295419 </i>
    <i name="e_wo_entrp">   -163.20295419 </i>
    <i name="e_0_energy">   -163.20295419 </i>
   </energy>
  </scstep>
  <structure>
   <crystal>
    <varray name="basis" >
     <v>       6.76512474      -0.01104897       0.01288287 </v>
     <v>      -3.01817375       6.05455713       0.01288287 </v>
     <v>       1.92829699       3.11017642       3.61394901 </v>
    </varray>
    <i name="volume">    147.36355642 </i>
    <varray name="rec_basis" >
     <v>       0.14821027       0.07418637      -0.14292568 </v>
     <v>       0.00054286       0.16573958      -0.14292568 </v>
     <v>      -0.00053027      -0.00085528       0.27772461 </v>
    </varray>
   </crystal>
   <varray name="positions" >
    <v>       0.29911750       0.71859876       0.63663547 </v>
    <v>       0.93282592       0.82688967       0.88482674 </v>
    <v>       0.78140124       0.20088248       0.86336453 </v>
    <v>       0.67311033       0.56717408       0.61517326 </v>
    <v>       0.70088250       0.28140124       0.36336453 </v>
    <v>       0.06717409       0.17311033       0.11517325 </v>
    <v>       0.21859877       0.79911750       0.13663545 </v>
    <v>       0.32688967       0.43282592       0.38482674 </v>
    <v>       0.11885269       0.38114731       0.75000000 </v>
    <v>       0.88114731       0.61885269       0.25000000 </v>
    <v>       0.61509232       0.88490768       0.75000000 </v>
    <v>       0.38490765       0.11509235       0.25000000 </v>
   </varray>
  </structure>
  <varray name="forces" >
   <v>      -0.00001358       0.00011317      -0.00005229 </v>
   <v>      -0.00020450      -0.00001824      -0.00014056 </v>
   <v>      -0.00010740      -0.00003816       0.00005229 </v>
   <v>      -0.00007460       0.00019128       0.00014056 </v>
   <v>       0.00001358      -0.00011317       0.00005229 </v>
   <v>       0.00020450       0.00001824       0.00014056 </v>
   <v>       0.00010740       0.00003816      -0.00005229 </v>
   <v>       0.00007460      -0.00019128      -0.00014056 </v>
   <v>      -0.00079870       0.00049519      -0.00000000 </v>
   <v>       0.00079870      -0.00049519       0.00000000 </v>
   <v>      -0.00056822       0.00035230      -0.00000000 </v>
   <v>       0.00056822      -0.00035230       0.00000000 </v>
  </varray>
  <varray name="stress" >
   <v>      -0.01757955       0.08325692      -0.02536189 </v>
   <v>       0.08325692       0.06508770      -0.04090654 </v>
   <v>      -0.02535657      -0.04089796       0.03330564 </v>
  </varray>
  <energy>
   <i name="e_fr_energy">   -163.20295419 </i>
   <i name="e_wo_entrp">   -163.20295419 </i>
   <i name="e_0_energy">      0.00000000 </i>
  </energy>
  <time name="totalsc"> 1042.74 1047.02</time>
 </calculation>
 <calculation>
  <scstep>
   <time name="dav">  446.90  447.17</time>
   <time name="total">  448.16  448.45</time>
   <energy>
    <i name="alphaZ">    450.69836676 </i>
    <i name="ewald">  -7607.20747089 </i>
    <i name="hartreedc">  -2497.81520502 </i>
    <i name="XCdc">    168.64102843 </i>
    <i name="pawpsdc">  13778.79711325 </i>
    <i name="pawaedc"> -13657.51536886 </i>
    <i name="eentropy">      0.00000000 </i>
    <i name="bandstr">  -1492.58769384 </i>
    <i name="atom">   9926.69705820 </i>
    <i name="e_fr_energy">   -163.20295199 </i>
    <i name="e_wo_entrp">   -163.20295199 </i>
    <i name="e_0_energy">   -163.20295199 </i>
   </energy>
  </scstep>
  <scstep>
   <time name="dav">  529.48  529.80</time>
   <time name="total">  530.77  531.10</time>
   <energy>
    <i name="e_fr_energy">   -163.20295409 </i>
    <i name="e_wo_entrp">   -163.20295409 </i>
    <i name="e_0_energy">   -163.20295409 </i>
   </energy>
  </scstep>
  <scstep>
   <time name="dav">  590.72  591.08</time>
   <time name="total">  592.04  592.40</time>
   <energy>
    <i name="e_fr_energy">   -163.20295372 </i>
    <i name="e_wo_entrp">   -163.20295372 </i>
    <i name="e_0_energy">   -163.20295372 </i>
   </energy>
  </scstep>
  <scstep>
   <time name="dav">  530.35  530.67</time>
   <time name="total">  531.68  532.01</time>
   <energy>
    <i name="e_fr_energy">   -163.20295354 </i>
    <i name="e_wo_entrp">   -163.20295354 </i>
    <i name="e_0_energy">   -163.20295354 </i>
   </energy>
  </scstep>
  <scstep>
   <time name="dav">  534.20  534.53</time>
   <time name="total">  535.50  535.83</time>
   <energy>
    <i name="e_fr_energy">   -163.20295346 </i>
    <i name="e_wo_entrp">   -163.20295346 </i>
    <i name="e_0_energy">   -163.20295346 </i>
   </energy>
  </scstep>
  <scstep>
   <time name="dav">  455.68  455.96</time>
   <time name="total">  456.98  457.27</time>
   <energy>
    <i name="e_fr_energy">   -163.20295344 </i>
    <i name="e_wo_entrp">   -163.20295344 </i>
    <i name="e_0_energy">   -163.20295344 </i>
   </energy>
  </scstep>
  <scstep>
   <time name="dav">  329.76  329.97</time>
   <time name="total">  331.06  331.27</time>
   <energy>
    <i name="e_fr_energy">   -163.20295343 </i>
    <i name="e_wo_entrp">   -163.20295343 </i>
    <i name="e_0_energy">   -163.20295343 </i>
   </energy>
  </scstep>
  <scstep>
   <time name="dav">  295.63  295.81</time>
   <time name="total">  296.34  296.52</time>
   <energy>
    <i name="alphaZ">    450.69836676 </i>
    <i name="ewald">  -7607.20747089 </i>
    <i name="hartreedc">  -2497.87059555 </i>
    <i name="XCdc">    168.64230663 </i>
    <i name="pawpsdc">  13777.89785759 </i>
    <i name="pawaedc"> -13656.61575462 </i>
    <i name="eentropy">      0.00000000 </i>
    <i name="bandstr">  -1492.53916623 </i>
    <i name="atom">   9926.69705820 </i>
    <i name="e_fr_energy">   -163.20295342 </i>
    <i name="e_wo_entrp">   -163.20295342 </i>
    <i name="e_0_energy">   -163.20295342 </i>
   </energy>
  </scstep>
  <structure>
   <crystal>
    <varray name="basis" >
     <v>       6.76508030      -0.01084117       0.01281975 </v>
     <v>      -3.01796785       6.05460973       0.01281975 </v>
     <v>       1.92834632       3.11025598       3.61392839 </v>
    </varray>
    <i name="volume">    147.36795981 </i>
    <varray name="rec_basis" >
     <v>       0.14820761       0.07417787      -0.14292141 </v>
     <v>       0.00053643       0.16573341      -0.14292141 </v>
     <v>      -0.00052764      -0.00085104       0.27772117 </v>
    </varray>
   </crystal>
   <varray name="positions" >
    <v>       0.29911817       0.71860002       0.63663476 </v>
    <v>       0.93282536       0.82689049       0.88482486 </v>
    <v>       0.78139998       0.20088181       0.86336524 </v>
    <v>       0.67310951       0.56717464       0.61517514 </v>
    <v>       0.70088183       0.28139998       0.36336524 </v>
    <v>       0.06717465       0.17310951       0.11517513 </v>
    <v>       0.21860004       0.79911817       0.13663475 </v>
    <v>       0.32689049       0.43282536       0.38482486 </v>
    <v>       0.11884875       0.38115125       0.75000000 </v>
    <v>       0.88115125       0.61884875       0.25000000 </v>
    <v>       0.61508952       0.88491048       0.75000000 </v>
    <v>       0.38491045       0.11508955       0.25000000 </v>
   </varray>
  </structure>
  <varray name="forces" >
   <v>      -0.00005901      -0.00043507       0.00025814 </v>
   <v>       0.00077717      -0.00009002       0.00125428 </v>
   <v>       0.00036345       0.00024632      -0.00025814 </v>
   <v>       0.00042622      -0.00065608      -0.00125428 </v>
   <v>       0.00005901       0.00043507      -0.00025814 </v>
   <v>      -0.00077717       0.00009002      -0.00125428 </v>
   <v>      -0.00036345      -0.00024632       0.00025814 </v>
   <v>      -0.00042622       0.00065608       0.00125428 </v>
   <v>       0.00067675      -0.00041958       0.00000000 </v>
   <v>      -0.00067675       0.00041958      -0.00000000 </v>
   <v>      -0.00008781       0.00005444      -0.00000000 </v>
   <v>       0.00008781      -0.00005444       0.00000000 </v>
  </varray>
  <varray name="stress" >
   <v>       0.02070294      -0.02253402      -0.08012459 </v>
   <v>      -0.02253402      -0.00167148      -0.12923404 </v>
   <v>      -0.08011901      -0.12922505      -0.10163216 </v>
  </varray>
  <energy>
   <i name="e_fr_energy">   -163.20295342 </i>
   <i name="e_wo_entrp">   -163.20295342 </i>
   <i name="e_0_energy">      0.00000000 </i>
  </energy>
  <time name="totalsc"> 4042.80 4045.98</time>
 </calculation>
 <calculation>
  <scstep>
   <time name="dav">  458.48  458.76</time>
   <time name="total">  459.76  460.05</time>
   <energy>
    <i name="alphaZ">    450.70262341 </i>
    <i name="ewald">  -7607.20579897 </i>
    <i name="hartreedc">  -2497.89704001 </i>
    <i name="XCdc">    168.64294622 </i>
    <i name="pawpsdc">  13777.89000988 </i>
    <i name="pawaedc"> -13656.60795557 </i>
    <i name="eentropy">      0.00000000 </i>
    <i name="bandstr">  -1492.52194162 </i>
    <i name="atom">   9926.69705820 </i>
    <i name="e_fr_energy">   -163.20295317 </i>
    <i name="e_wo_entrp">   -163.20295317 </i>
    <i name="e_0_energy">   -163.20295317 </i>
   </energy>
  </scstep>
  <scstep>
   <time name="dav">  528.66  528.99</time>
   <time name="total">  529.98  530.30</time>
   <energy>
    <i name="e_fr_energy">   -163.20295374 </i>
    <i name="e_wo_entrp">   -163.20295374 </i>
    <i name="e_0_energy">   -163.20295374 </i>
   </energy>
  </scstep>
  <scstep>
   <time name="dav">  606.93  607.31</time>
   <time name="total">  608.25  608.62</time>
   <energy>
    <i name="e_fr_energy">   -163.20295363 </i>
    <i name="e_wo_entrp">   -163.20295363 </i>
    <i name="e_0_energy">   -163.20295363 </i>
   </energy>
  </scstep>
  <scstep>
   <time name="dav">  523.45  523.78</time>
   <time name="total">  524.76  525.08</time>
   <energy>
    <i name="e_fr_energy">   -163.20295358 </i>
    <i name="e_wo_entrp">   -163.20295358 </i>
    <i name="e_0_energy">   -163.20295358 </i>
   </energy>
  </scstep>
  <scstep>
   <time name="dav">  389.67  389.91</time>
   <time name="total">  390.38  390.62</time>
   <energy>
    <i name="alphaZ">    450.70262341 </i>
    <i name="ewald">  -7607.20579897 </i>
    <i name="hartreedc">  -2497.88567067 </i>
    <i name="XCdc">    168.64263239 </i>
    <i name="pawpsdc">  13778.53774888 </i>
    <i name="pawaedc"> -13657.25606749 </i>
    <i name="eentropy">      0.00000000 </i>
    <i name="bandstr">  -1492.53163740 </i>
    <i name="atom">   9926.69705820 </i>
    <i name="e_fr_energy">   -163.20295357 </i>
    <i name="e_wo_entrp">   -163.20295357 </i>
    <i name="e_0_energy">   -163.20295357 </i>
   </energy>
  </scstep>
  <structure>
   <crystal>
    <varray name="basis" >
     <v>       6.76509622      -0.01085878       0.01275779 </v>
     <v>      -3.01799072       6.05461616       0.01275779 </v>
     <v>       1.92830977       3.11019703       3.61382277 </v>
    </varray>
    <i name="volume">    147.36656800 </i>
    <varray name="rec_basis" >
     <v>       0.14820614       0.07417615      -0.14292062 </v>
     <v>       0.00053554       0.16573133      -0.14292062 </v>
     <v>      -0.00052510      -0.00084694       0.27772438 </v>
    </varray>
   </crystal>
   <varray name="positions" >
    <v>       0.29911701       0.71859839       0.63663584 </v>
    <v>       0.93282430       0.82688760       0.88483005 </v>
    <v>       0.78140161       0.20088298       0.86336416 </v>
    <v>       0.67311240       0.56717570       0.61516995 </v>
    <v>       0.70088299       0.28140161       0.36336416 </v>
    <v>       0.06717570       0.17311240       0.11516994 </v>
    <v>       0.21859841       0.79911701       0.13663582 </v>
    <v>       0.32688760       0.43282430       0.38483005 </v>
    <v>       0.11884978       0.38115022       0.75000000 </v>
    <v>       0.88115022       0.61884978       0.25000000 </v>
    <v>       0.61508939       0.88491061       0.75000000 </v>
    <v>       0.38491059       0.11508941       0.25000000 </v>
   </varray>
  </structure>
  <varray name="forces" >
   <v>       0.00008973      -0.00013048       0.00021768 </v>
   <v>      -0.00044910       0.00002889      -0.00020189 </v>
   <v>       0.00015677      -0.00002235      -0.00021768 </v>
   <v>      -0.00022558       0.00038941       0.00020189 </v>
   <v>      -0.00008973       0.00013048      -0.00021768 </v>
   <v>       0.00044910      -0.00002889       0.00020189 </v>
   <v>      -0.00015677       0.00002235       0.00021768 </v>
   <v>       0.00022558      -0.00038941      -0.00020189 </v>
   <v>      -0.00158392       0.00098203      -0.00000000 </v>
   <v>       0.00158392      -0.00098203       0.00000000 </v>
   <v>      -0.00060381       0.00037436      -0.00000000 </v>
   <v>       0.00060381      -0.00037436       0.00000000 </v>
  </varray>
  <varray name="stress" >
   <v>       0.11368013      -0.12749560      -0.05902744 </v>
   <v>      -0.12749560      -0.01291249      -0.09520615 </v>
   <v>      -0.05902125      -0.09519618      -0.04431857 </v>
  </varray>
  <energy>
   <i name="e_fr_energy">   -163.20295357 </i>
   <i name="e_wo_entrp">   -163.20295357 </i>
   <i name="e_0_energy">      0.00000000 </i>
  </energy>
  <time name="totalsc"> 2834.73 2837.27</time>
 </calculation>
 <calculation>
  <scstep>
   <time name="dav">  476.27  476.56</time>
   <time name="total">  477.32  477.90</time>
   <energy>
    <i name="alphaZ">    450.69604249 </i>
    <i name="ewald">  -7607.18607282 </i>
    <i name="hartreedc">  -2497.86139261 </i>
    <i name="XCdc">    168.64168889 </i>
    <i name="pawpsdc">  13778.57196246 </i>
    <i name="pawaedc"> -13657.29026677 </i>
    <i name="eentropy">      0.00000000 </i>
    <i name="bandstr">  -1492.56418930 </i>
    <i name="atom">   9926.69705820 </i>
    <i name="e_fr_energy">   -163.20295220 </i>
    <i name="e_wo_entrp">   -163.20295220 </i>
    <i name="e_0_energy">   -163.20295220 </i>
   </energy>
  </scstep>
  <scstep>
   <time name="dav">  492.74  493.05</time>
   <time name="total">  494.09  494.40</time>
   <energy>
    <i name="e_fr_energy">   -163.20295368 </i>
    <i name="e_wo_entrp">   -163.20295368 </i>
    <i name="e_0_energy">   -163.20295368 </i>
   </energy>
  </scstep>
  <scstep>
   <time name="dav">  567.99  568.34</time>
   <time name="total">  569.32  569.68</time>
   <energy>
    <i name="e_fr_energy">   -163.20295379 </i>
    <i name="e_wo_entrp">   -163.20295379 </i>
    <i name="e_0_energy">   -163.20295379 </i>
   </energy>
  </scstep>
  <scstep>
   <time name="dav">  515.66  515.97</time>
   <time name="total">  516.98  517.30</time>
   <energy>
    <i name="e_fr_energy">   -163.20295374 </i>
    <i name="e_wo_entrp">   -163.20295374 </i>
    <i name="e_0_energy">   -163.20295374 </i>
   </energy>
  </scstep>
  <scstep>
   <time name="dav">  465.10  465.39</time>
   <time name="total">  466.41  466.70</time>
   <energy>
    <i name="e_fr_energy">   -163.20295372 </i>
    <i name="e_wo_entrp">   -163.20295372 </i>
    <i name="e_0_energy">   -163.20295372 </i>
   </energy>
  </scstep>
  <scstep>
   <time name="dav">  314.38  314.57</time>
   <time name="total">  315.08  315.28</time>
   <energy>
    <i name="alphaZ">    450.69604249 </i>
    <i name="ewald">  -7607.18607282 </i>
    <i name="hartreedc">  -2497.88470576 </i>
    <i name="XCdc">    168.64224470 </i>
    <i name="pawpsdc">  13777.87027204 </i>
    <i name="pawaedc"> -13656.58795365 </i>
    <i name="eentropy">      0.00000000 </i>
    <i name="bandstr">  -1492.54385010 </i>
    <i name="atom">   9926.69705820 </i>
    <i name="e_fr_energy">   -163.20295371 </i>
    <i name="e_wo_entrp">   -163.20295371 </i>
    <i name="e_0_energy">   -163.20295371 </i>
   </energy>
  </scstep>
  <structure>
   <crystal>
    <varray name="basis" >
     <v>       6.76516891      -0.01094056       0.01276704 </v>
     <v>      -3.01809629       6.05464490       0.01276704 </v>
     <v>       1.92829775       3.11017764       3.61385089 </v>
    </varray>
    <i name="volume">    147.36871980 </i>
    <varray name="rec_basis" >
     <v>       0.14820564       0.07417835      -0.14292025 </v>
     <v>       0.00053773       0.16573187      -0.14292025 </v>
     <v>      -0.00052548      -0.00084756       0.27772295 </v>
    </varray>
   </crystal>
   <varray name="positions" >
    <v>       0.29911762       0.71859904       0.63663579 </v>
    <v>       0.93282470       0.82689062       0.88482469 </v>
    <v>       0.78140096       0.20088236       0.86336421 </v>
    <v>       0.67310938       0.56717530       0.61517531 </v>
    <v>       0.70088238       0.28140096       0.36336421 </v>
    <v>       0.06717530       0.17310938       0.11517529 </v>
    <v>       0.21859906       0.79911762       0.13663577 </v>
    <v>       0.32689062       0.43282470       0.38482469 </v>
    <v>       0.11884650       0.38115350       0.75000000 </v>
    <v>       0.88115350       0.61884650       0.25000000 </v>
    <v>       0.61508860       0.88491140       0.75000000 </v>
    <v>       0.38491137       0.11508863       0.25000000 </v>
   </varray>
  </structure>
  <varray name="forces" >
   <v>      -0.00009415      -0.00019935       0.00025173 </v>
   <v>       0.00124903      -0.00042449       0.00144566 </v>
   <v>       0.00013669       0.00017297      -0.00025173 </v>
   <v>       0.00093563      -0.00092998      -0.00144566 </v>
   <v>       0.00009415       0.00019935      -0.00025173 </v>
   <v>      -0.00124903       0.00042449      -0.00144566 </v>
   <v>      -0.00013669      -0.00017297       0.00025173 </v>
   <v>      -0.00093563       0.00092998       0.00144566 </v>
   <v>       0.00160416      -0.00099457       0.00000000 </v>
   <v>      -0.00160416       0.00099457      -0.00000000 </v>
   <v>       0.00022494      -0.00013946       0.00000000 </v>
   <v>      -0.00022494       0.00013946      -0.00000000 </v>
  </varray>
  <varray name="stress" >
   <v>      -0.10567782      -0.06570326       0.03408980 </v>
   <v>      -0.06570326      -0.17091574       0.05498389 </v>
   <v>       0.03409612       0.05499410      -0.18363699 </v>
  </varray>
  <energy>
   <i name="e_fr_energy">   -163.20295371 </i>
   <i name="e_wo_entrp">   -163.20295371 </i>
   <i name="e_0_energy">      0.00000000 </i>
  </energy>
  <time name="totalsc"> 3161.95 3165.74</time>
 </calculation>
 <calculation>
  <scstep>
   <time name="dav">  519.42  519.74</time>
   <time name="total">  520.45  542.72</time>
   <energy>
    <i name="alphaZ">    450.71423282 </i>
    <i name="ewald">  -7607.28286305 </i>
    <i name="hartreedc">  -2497.92285003 </i>
    <i name="XCdc">    168.64464622 </i>
    <i name="pawpsdc">  13777.86025759 </i>
    <i name="pawaedc"> -13656.57803562 </i>
    <i name="eentropy">      0.00000000 </i>
    <i name="bandstr">  -1492.43950149 </i>
    <i name="atom">   9926.69705820 </i>
    <i name="e_fr_energy">   -163.20295449 </i>
    <i name="e_wo_entrp">   -163.20295449 </i>
    <i name="e_0_energy">   -163.20295449 </i>
   </energy>
  </scstep>
  <scstep>
   <time name="dav">  500.02  500.32</time>
   <time name="total">  501.33  501.64</time>
   <energy>
    <i name="e_fr_energy">   -163.20295445 </i>
    <i name="e_wo_entrp">   -163.20295445 </i>
    <i name="e_0_energy">   -163.20295445 </i>
   </energy>
  </scstep>
  <scstep>
   <time name="dav">  554.78  555.12</time>
   <time name="total">  556.08  556.43</time>
   <energy>
    <i name="e_fr_energy">   -163.20295400 </i>
    <i name="e_wo_entrp">   -163.20295400 </i>
    <i name="e_0_energy">   -163.20295400 </i>
   </energy>
  </scstep>
  <scstep>
   <time name="dav">  509.42  509.74</time>
   <time name="total">  510.74  511.05</time>
   <energy>
    <i name="e_fr_energy">   -163.20295396 </i>
    <i name="e_wo_entrp">   -163.20295396 </i>
    <i name="e_0_energy">   -163.20295396 </i>
   </energy>
  </scstep>
  <scstep>
   <time name="dav">  455.26  455.54</time>
   <time name="total">  456.56  456.89</time>
   <energy>
    <i name="e_fr_energy">   -163.20295397 </i>
    <i name="e_wo_entrp">   -163.20295397 </i>
    <i name="e_0_energy">   -163.20295397 </i>
   </energy>
  </scstep>
  <scstep>
   <time name="dav">  283.81  283.98</time>
   <time name="total">  285.10  285.28</time>
   <energy>
    <i name="e_fr_energy">   -163.20295399 </i>
    <i name="e_wo_entrp">   -163.20295399 </i>
    <i name="e_0_energy">   -163.20295399 </i>
   </energy>
  </scstep>
  <scstep>
   <time name="dav">  297.29  297.47</time>
   <time name="total">  298.60  298.79</time>
   <energy>
    <i name="e_fr_energy">   -163.20295400 </i>
    <i name="e_wo_entrp">   -163.20295400 </i>
    <i name="e_0_energy">   -163.20295400 </i>
   </energy>
  </scstep>
  <scstep>
   <time name="dav">  303.23  303.42</time>
   <time name="total">  303.95  304.14</time>
   <energy>
    <i name="alphaZ">    450.71423282 </i>
    <i name="ewald">  -7607.28286305 </i>
    <i name="hartreedc">  -2497.84524653 </i>
    <i name="XCdc">    168.64290058 </i>
    <i name="pawpsdc">  13778.66820280 </i>
    <i name="pawaedc"> -13657.38707238 </i>
    <i name="eentropy">      0.00000000 </i>
    <i name="bandstr">  -1492.50720375 </i>
    <i name="atom">   9926.69705820 </i>
    <i name="e_fr_energy">   -163.20295401 </i>
    <i name="e_wo_entrp">   -163.20295401 </i>
    <i name="e_0_energy">   -163.20295401 </i>
   </energy>
  </scstep>
  <structure>
   <crystal>
    <varray name="basis" >
     <v>       6.76511468      -0.01101378       0.01281810 </v>
     <v>      -3.01813775       6.05456377       0.01281810 </v>
     <v>       1.92827584       3.11014230       3.61385497 </v>
    </varray>
    <i name="volume">    147.36277216 </i>
    <varray name="rec_basis" >
     <v>       0.14820873       0.07418311      -0.14292420 </v>
     <v>       0.00054063       0.16573675      -0.14292420 </v>
     <v>      -0.00052760      -0.00085098       0.27772670 </v>
    </varray>
   </crystal>
   <varray name="positions" >
    <v>       0.29911738       0.71859893       0.63663636 </v>
    <v>       0.93282451       0.82688898       0.88482631 </v>
    <v>       0.78140107       0.20088260       0.86336364 </v>
    <v>       0.67311102       0.56717549       0.61517369 </v>
    <v>       0.70088262       0.28140107       0.36336364 </v>
    <v>       0.06717550       0.17311102       0.11517367 </v>
    <v>       0.21859894       0.79911738       0.13663634 </v>
    <v>       0.32688898       0.43282451       0.38482631 </v>
    <v>       0.11884714       0.38115286       0.75000000 </v>
    <v>       0.88115286       0.61884714       0.25000000 </v>
    <v>       0.61508866       0.88491134       0.75000000 </v>
    <v>       0.38491131       0.11508869       0.25000000 </v>
   </varray>
  </structure>
  <varray name="forces" >
   <v>      -0.00019041       0.00059476      -0.00002956 </v>
   <v>       0.00070706      -0.00028938       0.00069424 </v>
   <v>      -0.00061740      -0.00009393       0.00002956 </v>
   <v>       0.00057360      -0.00050463      -0.00069424 </v>
   <v>       0.00019041      -0.00059476       0.00002956 </v>
   <v>      -0.00070706       0.00028938      -0.00069424 </v>
   <v>       0.00061740       0.00009393      -0.00002956 </v>
   <v>      -0.00057360       0.00050463       0.00069424 </v>
   <v>       0.00168902      -0.00104718       0.00000000 </v>
   <v>      -0.00168902       0.00104718      -0.00000000 </v>
   <v>       0.00052453      -0.00032521       0.00000000 </v>
   <v>      -0.00052453       0.00032521      -0.00000000 </v>
  </varray>
  <varray name="stress" >
   <v>       0.00232642       0.03949431       0.01344956 </v>
   <v>       0.03949431       0.04154102       0.02169298 </v>
   <v>       0.01345505       0.02170183      -0.12422368 </v>
  </varray>
  <energy>
   <i name="e_fr_energy">   -163.20295401 </i>
   <i name="e_wo_entrp">   -163.20295401 </i>
   <i name="e_0_energy">      0.00000000 </i>
  </energy>
  <time name="totalsc"> 3748.11 3804.15</time>
 </calculation>
 <calculation>
  <scstep>
   <time name="dav">  464.02  464.30</time>
   <time name="total">  465.31  465.76</time>
   <energy>
    <i name="alphaZ">    450.72837446 </i>
    <i name="ewald">  -7607.34329331 </i>
    <i name="hartreedc">  -2497.88381997 </i>
    <i name="XCdc">    168.64481766 </i>
    <i name="pawpsdc">  13778.67420457 </i>
    <i name="pawaedc"> -13657.39297748 </i>
    <i name="eentropy">      0.00000000 </i>
    <i name="bandstr">  -1492.43244240 </i>
    <i name="atom">   9926.69705820 </i>
    <i name="e_fr_energy">   -163.20295021 </i>
    <i name="e_wo_entrp">   -163.20295021 </i>
    <i name="e_0_energy">   -163.20295021 </i>
   </energy>
  </scstep>
  <scstep>
   <time name="dav">  454.59  454.87</time>
   <time name="total">  455.91  456.22</time>
   <energy>
    <i name="e_fr_energy">   -163.20295381 </i>
    <i name="e_wo_entrp">   -163.20295381 </i>
    <i name="e_0_energy">   -163.20295381 </i>
   </energy>
  </scstep>
  <scstep>
   <time name="dav">  560.08  560.42</time>
   <time name="total">  561.39  561.74</time>
   <energy>
    <i name="e_fr_energy">   -163.20295369 </i>
    <i name="e_wo_entrp">   -163.20295369 </i>
    <i name="e_0_energy">   -163.20295369 </i>
   </energy>
  </scstep>
  <scstep>
   <time name="dav">  477.39  477.68</time>
   <time name="total">  478.71  479.01</time>
   <energy>
    <i name="e_fr_energy">   -163.20295353 </i>
    <i name="e_wo_entrp">   -163.20295353 </i>
    <i name="e_0_energy">   -163.20295353 </i>
   </energy>
  </scstep>
  <scstep>
   <time name="dav">  515.80  516.11</time>
   <time name="total">  517.10  517.42</time>
   <energy>
    <i name="e_fr_energy">   -163.20295351 </i>
    <i name="e_wo_entrp">   -163.20295351 </i>
    <i name="e_0_energy">   -163.20295351 </i>
   </energy>
  </scstep>
  <scstep>
   <time name="dav">  391.34  391.58</time>
   <time name="total">  392.66  392.90</time>
   <energy>
    <i name="e_fr_energy">   -163.20295352 </i>
    <i name="e_wo_entrp">   -163.20295352 </i>
    <i name="e_0_energy">   -163.20295352 </i>
   </energy>
  </scstep>
  <scstep>
   <time name="dav">  306.84  307.03</time>
   <time name="total">  307.56  307.74</time>
   <energy>
    <i name="alphaZ">    450.72837446 </i>
    <i name="ewald">  -7607.34329331 </i>
    <i name="hartreedc">  -2497.83106114 </i>
    <i name="XCdc">    168.64355049 </i>
    <i name="pawpsdc">  13779.80042593 </i>
    <i name="pawaedc"> -13658.52001882 </i>
    <i name="eentropy">      0.00000000 </i>
    <i name="bandstr">  -1492.47831673 </i>
    <i name="atom">   9926.69705820 </i>
    <i name="e_fr_energy">   -163.20295353 </i>
    <i name="e_wo_entrp">   -163.20295353 </i>
    <i name="e_0_energy">   -163.20295353 </i>
   </energy>
  </scstep>
  <structure>
   <crystal>
    <varray name="basis" >
     <v>       6.76516057      -0.01103120       0.01283119 </v>
     <v>      -3.01817376       6.05459712       0.01283119 </v>
     <v>       1.92828821       3.11016226       3.61371589 </v>
    </varray>
    <i name="volume">    147.35814864 </i>
    <varray name="rec_basis" >
     <v>       0.14820821       0.07418365      -0.14293080 </v>
     <v>       0.00054134       0.16573652      -0.14293080 </v>
     <v>      -0.00052816      -0.00085188       0.27773848 </v>
    </varray>
   </crystal>
   <varray name="positions" >
    <v>       0.29911779       0.71860215       0.63663682 </v>
    <v>       0.93282353       0.82688352       0.88483313 </v>
    <v>       0.78139785       0.20088219       0.86336318 </v>
    <v>       0.67311648       0.56717647       0.61516687 </v>
    <v>       0.70088221       0.28139785       0.36336318 </v>
    <v>       0.06717648       0.17311648       0.11516685 </v>
    <v>       0.21860217       0.79911779       0.13663680 </v>
    <v>       0.32688352       0.43282353       0.38483313 </v>
    <v>       0.11885195       0.38114805       0.75000000 </v>
    <v>       0.88114805       0.61885195       0.25000000 </v>
    <v>       0.61509001       0.88490999       0.75000000 </v>
    <v>       0.38490996       0.11509004       0.25000000 </v>
   </varray>
  </structure>
  <varray name="forces" >
   <v>       0.00027915      -0.00014591       0.00004938 </v>
   <v>      -0.00192246       0.00039847      -0.00222986 </v>
   <v>       0.00025483      -0.00018515      -0.00004938 </v>
   <v>      -0.00121177       0.00154474       0.00222986 </v>
   <v>      -0.00027915       0.00014591      -0.00004938 </v>
   <v>       0.00192246      -0.00039847       0.00222986 </v>
   <v>      -0.00025483       0.00018515       0.00004938 </v>
   <v>       0.00121177      -0.00154474      -0.00222986 </v>
   <v>      -0.00438995       0.00272175      -0.00000000 </v>
   <v>       0.00438995      -0.00272175       0.00000000 </v>
   <v>      -0.00109771       0.00068058      -0.00000000 </v>
   <v>       0.00109771      -0.00068058       0.00000000 </v>
  </varray>
  <varray name="stress" >
   <v>       0.02293616      -0.02916825       0.03301269 </v>
   <v>      -0.02916825      -0.00602550       0.05324661 </v>
   <v>       0.03301811       0.05325536       0.17518946 </v>
  </varray>
  <energy>
   <i name="e_fr_energy">   -163.20295353 </i>
   <i name="e_wo_entrp">   -163.20295353 </i>
   <i name="e_0_energy">      0.00000000 </i>
  </energy>
  <time name="totalsc"> 3492.37 3504.17</time>
 </calculation>
 <calculation>
  <scstep>
   <time name="dav">  475.97  476.27</time>
   <time name="total">  477.11  485.44</time>
   <energy>
    <i name="alphaZ">    450.71983884 </i>
    <i name="ewald">  -7607.31026587 </i>
    <i name="hartreedc">  -2497.80625206 </i>
    <i name="XCdc">    168.64237081 </i>
    <i name="pawpsdc">  13779.81392931 </i>
    <i name="pawaedc"> -13658.53336464 </i>
    <i name="eentropy">      0.00000000 </i>
    <i name="bandstr">  -1492.52143479 </i>
    <i name="atom">   9926.69705820 </i>
    <i name="e_fr_energy">   -163.20295110 </i>
    <i name="e_wo_entrp">   -163.20295110 </i>
    <i name="e_0_energy">   -163.20295110 </i>
   </energy>
  </scstep>
  <scstep>
   <time name="dav">  479.99  480.29</time>
   <time name="total">  481.33  481.63</time>
   <energy>
    <i name="e_fr_energy">   -163.20295385 </i>
    <i name="e_wo_entrp">   -163.20295385 </i>
    <i name="e_0_energy">   -163.20295385 </i>
   </energy>
  </scstep>
  <scstep>
   <time name="dav">  585.12  585.49</time>
   <time name="total">  586.43  586.79</time>
   <energy>
    <i name="e_fr_energy">   -163.20295413 </i>
    <i name="e_wo_entrp">   -163.20295413 </i>
    <i name="e_0_energy">   -163.20295413 </i>
   </energy>
  </scstep>
  <scstep>
   <time name="dav">  517.92  518.23</time>
   <time name="total">  519.22  519.54</time>
   <energy>
    <i name="e_fr_energy">   -163.20295406 </i>
    <i name="e_wo_entrp">   -163.20295406 </i>
    <i name="e_0_energy">   -163.20295406 </i>
   </energy>
  </scstep>
  <scstep>
   <time name="dav">  541.49  541.82</time>
   <time name="total">  542.83  543.17</time>
   <energy>
    <i name="e_fr_energy">   -163.20295403 </i>
    <i name="e_wo_entrp">   -163.20295403 </i>
    <i name="e_0_energy">   -163.20295403 </i>
   </energy>
  </scstep>
  <scstep>
   <time name="dav">  322.70  322.90</time>
   <time name="total">  323.40  323.61</time>
   <energy>
    <i name="alphaZ">    450.71983884 </i>
    <i name="ewald">  -7607.31026587 </i>
    <i name="hartreedc">  -2497.83612871 </i>
    <i name="XCdc">    168.64310450 </i>
    <i name="pawpsdc">  13778.98330734 </i>
    <i name="pawaedc"> -13657.70194313 </i>
    <i name="eentropy">      0.00000000 </i>
    <i name="bandstr">  -1492.49579133 </i>
    <i name="atom">   9926.69705820 </i>
    <i name="e_fr_energy">   -163.20295402 </i>
    <i name="e_wo_entrp">   -163.20295402 </i>
    <i name="e_0_energy">   -163.20295402 </i>
   </energy>
  </scstep>
  <structure>
   <crystal>
    <varray name="basis" >
     <v>       6.76512384      -0.01097952       0.01283022 </v>
     <v>      -3.01811114       6.05458721       0.01283022 </v>
     <v>       1.92830087       3.11018267       3.61379475 </v>
    </varray>
    <i name="volume">    147.36093927 </i>
    <varray name="rec_basis" >
     <v>       0.14820841       0.07418231      -0.14292758 </v>
     <v>       0.00054005       0.16573611      -0.14292758 </v>
     <v>      -0.00052811      -0.00085179       0.27773232 </v>
    </varray>
   </crystal>
   <varray name="positions" >
    <v>       0.29911742       0.71860040       0.63663713 </v>
    <v>       0.93282415       0.82688746       0.88482770 </v>
    <v>       0.78139960       0.20088257       0.86336287 </v>
    <v>       0.67311254       0.56717585       0.61517230 </v>
    <v>       0.70088258       0.28139960       0.36336287 </v>
    <v>       0.06717585       0.17311254       0.11517229 </v>
    <v>       0.21860042       0.79911742       0.13663711 </v>
    <v>       0.32688746       0.43282415       0.38482770 </v>
    <v>       0.11884710       0.38115290       0.75000000 </v>
    <v>       0.88115290       0.61884710       0.25000000 </v>
    <v>       0.61508869       0.88491131       0.75000000 </v>
    <v>       0.38491128       0.11508872       0.25000000 </v>
   </varray>
  </structure>
  <varray name="forces" >
   <v>      -0.00004935       0.00035765      -0.00000092 </v>
   <v>       0.00002597      -0.00005074      -0.00005577 </v>
   <v>      -0.00034229      -0.00011484       0.00000092 </v>
   <v>       0.00005699      -0.00000070       0.00005577 </v>
   <v>       0.00004935      -0.00035765       0.00000092 </v>
   <v>      -0.00002597       0.00005074       0.00005577 </v>
   <v>       0.00034229       0.00011484      -0.00000092 </v>
   <v>      -0.00005699       0.00000070      -0.00005577 </v>
   <v>       0.00002956      -0.00001833       0.00000000 </v>
   <v>      -0.00002956       0.00001833      -0.00000000 </v>
   <v>       0.00013963      -0.00008657       0.00000000 </v>
   <v>      -0.00013963       0.00008657      -0.00000000 </v>
  </varray>
  <varray name="stress" >
   <v>       0.00550384      -0.01365058       0.01546625 </v>
   <v>      -0.01365058      -0.00805007       0.02494572 </v>
   <v>       0.01547222       0.02495535      -0.01777433 </v>
  </varray>
  <energy>
   <i name="e_fr_energy">   -163.20295402 </i>
   <i name="e_wo_entrp">   -163.20295402 </i>
   <i name="e_0_energy">      0.00000000 </i>
  </energy>
  <time name="totalsc"> 3245.43 3271.62</time>
  <eigenvalues>
   <array>
    <dimension dim="1">band</dimension>
    <dimension dim="2">kpoint</dimension>
    <dimension dim="3">spin</dimension>
    <field>eigene</field>
    <field>occ</field>
    <set>
     <set comment="spin 1">
      <set comment="kpoint 1">
       <r>  -44.6740    1.0000 </r>
       <r>  -44.6696    1.0000 </r>
       <r>  -44.5270    1.0000 </r>
       <r>  -44.5103    1.0000 </r>
       <r>  -44.4921    1.0000 </r>
       <r>  -44.4903    1.0000 </r>
       <r>  -24.3090    1.0000 </r>
       <r>  -24.2226    1.0000 </r>
       <r>  -24.1990    1.0000 </r>
       <r>  -24.1184    1.0000 </r>
       <r>  -24.0542    1.0000 </r>
       <r>  -24.0482    1.0000 </r>
       <r>  -24.0241    1.0000 </r>
       <r>  -24.0095    1.0000 </r>
       <r>  -24.0010    1.0000 </r>
       <r>  -23.9795    1.0000 </r>
       <r>  -21.7834    1.0000 </r>
       <r>  -20.1491    1.0000 </r>
       <r>  -19.9337    1.0000 </r>
       <r>  -19.7791    1.0000 </r>
       <r>  -19.7630    1.0000 </r>
       <r>  -19.5858    1.0000 </r>
       <r>  -19.4829    1.0000 </r>
       <r>  -19.3246    1.0000 </r>
       <r>   -9.9183    1.0000 </r>
       <r>   -8.6564    1.0000 </r>
       <r>   -5.6814    1.0000 </r>
       <r>   -5.3993    1.0000 </r>
       <r>   -5.1564    1.0000 </r>
       <r>   -4.7828    1.0000 </r>
       <r>   -4.4755    1.0000 </r>
       <r>   -3.9103    1.0000 </r>
       <r>   -3.4037    1.0000 </r>
       <r>   -3.3908    1.0000 </r>
       <r>   -3.3408    1.0000 </r>
       <r>   -3.1323    1.0000 </r>
       <r>   -2.8794    1.0000 </r>
       <r>   -2.4932    1.0000 </r>
       <r>   -2.1225    1.0000 </r>
       <r>   -2.0365    1.0000 </r>
       <r>   -1.9687    1.0000 </r>
       <r>   -1.7204    1.0000 </r>
       <r>   -1.3012    1.0000 </r>
       <r>   -1.1898    1.0000 </r>
       <r>   -1.1386    1.0000 </r>
       <r>   -0.7461    1.0000 </r>
       <r>   -0.3018    1.0000 </r>
       <r>   -0.1569    1.0000 </r>
       <r>    0.3847    1.0000 </r>
       <r>    0.5935    1.0000 </r>
       <r>    9.0948    0.0000 </r>
       <r>    9.5556    0.0000 </r>
       <r>   10.1800    0.0000 </r>
       <r>   10.3743    0.0000 </r>
       <r>   10.7269    0.0000 </r>
       <r>   11.0723    0.0000 </r>
       <r>   11.0740    0.0000 </r>
       <r>   11.1081    0.0000 </r>
       <r>   11.1081    0.0000 </r>
       <r>   11.2559    0.0000 </r>
      </set>
      <set comment="kpoint 2">
       <r>  -44.6742    1.0000 </r>
       <r>  -44.6694    1.0000 </r>
       <r>  -44.5255    1.0000 </r>
       <r>  -44.5117    1.0000 </r>
       <r>  -44.4920    1.0000 </r>
       <r>  -44.4905    1.0000 </r>
       <r>  -24.3066    1.0000 </r>
       <r>  -24.2335    1.0000 </r>
       <r>  -24.2157    1.0000 </r>
       <r>  -24.1239    1.0000 </r>
       <r>  -24.0464    1.0000 </r>
       <r>  -24.0377    1.0000 </r>
       <r>  -24.0240    1.0000 </r>
       <r>  -24.0059    1.0000 </r>
       <r>  -23.9920    1.0000 </r>
       <r>  -23.9772    1.0000 </r>
       <r>  -21.5551    1.0000 </r>
       <r>  -20.3536    1.0000 </r>
       <r>  -20.0038    1.0000 </r>
       <r>  -19.8632    1.0000 </r>
       <r>  -19.6925    1.0000 </r>
       <r>  -19.5613    1.0000 </r>
       <r>  -19.5067    1.0000 </r>
       <r>  -19.3297    1.0000 </r>
       <r>   -9.8254    1.0000 </r>
       <r>   -8.7089    1.0000 </r>
       <r>   -5.5529    1.0000 </r>
       <r>   -5.4764    1.0000 </r>
       <r>   -5.1523    1.0000 </r>
       <r>   -4.5449    1.0000 </r>
       <r>   -4.3506    1.0000 </r>
       <r>   -3.8810    1.0000 </r>
       <r>   -3.7632    1.0000 </r>
       <r>   -3.5017    1.0000 </r>
       <r>   -3.2737    1.0000 </r>
       <r>   -3.0774    1.0000 </r>
       <r>   -2.9080    1.0000 </r>
       <r>   -2.6218    1.0000 </r>
       <r>   -2.4255    1.0000 </r>
       <r>   -2.2046    1.0000 </r>
       <r>   -1.9011    1.0000 </r>
       <r>   -1.5674    1.0000 </r>
       <r>   -1.3873    1.0000 </r>
       <r>   -1.1539    1.0000 </r>
       <r>   -0.8478    1.0000 </r>
       <r>   -0.7134    1.0000 </r>
       <r>   -0.1967    1.0000 </r>
       <r>   -0.1741    1.0000 </r>
       <r>    0.2202    1.0000 </r>
       <r>    0.9744    1.0000 </r>
       <r>    9.0089    0.0000 </r>
       <r>    9.4336    0.0000 </r>
       <r>    9.7727    0.0000 </r>
       <r>    9.9423    0.0000 </r>
       <r>   10.5813    0.0000 </r>
       <r>   10.6947    0.0000 </r>
       <r>   10.8477    0.0000 </r>
       <r>   11.2729    0.0000 </r>
       <r>   11.5789    0.0000 </r>
       <r>   11.8315    0.0000 </r>
      </set>
      <set comment="kpoint 3">
       <r>  -44.6745    1.0000 </r>
       <r>  -44.6692    1.0000 </r>
       <r>  -44.5235    1.0000 </r>
       <r>  -44.5135    1.0000 </r>
       <r>  -44.4917    1.0000 </r>
       <r>  -44.4911    1.0000 </r>
       <r>  -24.3044    1.0000 </r>
       <r>  -24.2431    1.0000 </r>
       <r>  -24.2308    1.0000 </r>
       <r>  -24.1273    1.0000 </r>
       <r>  -24.0391    1.0000 </r>
       <r>  -24.0330    1.0000 </r>
       <r>  -24.0249    1.0000 </r>
       <r>  -24.0011    1.0000 </r>
       <r>  -23.9821    1.0000 </r>
       <r>  -23.9744    1.0000 </r>
       <r>  -21.1357    1.0000 </r>
       <r>  -20.7418    1.0000 </r>
       <r>  -20.0857    1.0000 </r>
       <r>  -19.9153    1.0000 </r>
       <r>  -19.7327    1.0000 </r>
       <r>  -19.5252    1.0000 </r>
       <r>  -19.4253    1.0000 </r>
       <r>  -19.3684    1.0000 </r>
       <r>   -9.7061    1.0000 </r>
       <r>   -8.7913    1.0000 </r>
       <r>   -5.6052    1.0000 </r>
       <r>   -5.2702    1.0000 </r>
       <r>   -4.8844    1.0000 </r>
       <r>   -4.8095    1.0000 </r>
       <r>   -4.4729    1.0000 </r>
       <r>   -4.0578    1.0000 </r>
       <r>   -3.3636    1.0000 </r>
       <r>   -3.3614    1.0000 </r>
       <r>   -3.2061    1.0000 </r>
       <r>   -3.1505    1.0000 </r>
       <r>   -2.9339    1.0000 </r>
       <r>   -2.7495    1.0000 </r>
       <r>   -2.6547    1.0000 </r>
       <r>   -2.3941    1.0000 </r>
       <r>   -1.8929    1.0000 </r>
       <r>   -1.4927    1.0000 </r>
       <r>   -1.3734    1.0000 </r>
       <r>   -1.0691    1.0000 </r>
       <r>   -0.8440    1.0000 </r>
       <r>   -0.6091    1.0000 </r>
       <r>   -0.5300    1.0000 </r>
       <r>   -0.3284    1.0000 </r>
       <r>    0.3962    1.0000 </r>
       <r>    1.4406    1.0000 </r>
       <r>    8.7785    0.0000 </r>
       <r>    9.1416    0.0000 </r>
       <r>    9.8712    0.0000 </r>
       <r>    9.9706    0.0000 </r>
       <r>   10.4067    0.0000 </r>
       <r>   10.5869    0.0000 </r>
       <r>   10.7164    0.0000 </r>
       <r>   11.3980    0.0000 </r>
       <r>   11.4600    0.0000 </r>
       <r>   11.6444    0.0000 </r>
      </set>
      <set comment="kpoint 4">
       <r>  -44.6745    1.0000 </r>
       <r>  -44.6692    1.0000 </r>
       <r>  -44.5235    1.0000 </r>
       <r>  -44.5135    1.0000 </r>
       <r>  -44.4918    1.0000 </r>
       <r>  -44.4910    1.0000 </r>
       <r>  -24.3045    1.0000 </r>
       <r>  -24.2415    1.0000 </r>
       <r>  -24.2319    1.0000 </r>
       <r>  -24.1300    1.0000 </r>
       <r>  -24.0379    1.0000 </r>
       <r>  -24.0275    1.0000 </r>
       <r>  -24.0263    1.0000 </r>
       <r>  -23.9967    1.0000 </r>
       <r>  -23.9908    1.0000 </r>
       <r>  -23.9731    1.0000 </r>
       <r>  -21.1430    1.0000 </r>
       <r>  -20.7198    1.0000 </r>
       <r>  -20.1232    1.0000 </r>
       <r>  -19.9158    1.0000 </r>
       <r>  -19.7015    1.0000 </r>
       <r>  -19.5327    1.0000 </r>
       <r>  -19.3990    1.0000 </r>
       <r>  -19.3951    1.0000 </r>
       <r>   -9.7058    1.0000 </r>
       <r>   -8.7928    1.0000 </r>
       <r>   -5.6051    1.0000 </r>
       <r>   -5.1762    1.0000 </r>
       <r>   -5.0867    1.0000 </r>
       <r>   -4.8827    1.0000 </r>
       <r>   -4.1156    1.0000 </r>
       <r>   -3.9572    1.0000 </r>
       <r>   -3.7253    1.0000 </r>
       <r>   -3.3655    1.0000 </r>
       <r>   -3.2881    1.0000 </r>
       <r>   -3.0399    1.0000 </r>
       <r>   -2.9219    1.0000 </r>
       <r>   -2.6816    1.0000 </r>
       <r>   -2.6209    1.0000 </r>
       <r>   -2.3677    1.0000 </r>
       <r>   -2.0597    1.0000 </r>
       <r>   -1.5477    1.0000 </r>
       <r>   -1.1771    1.0000 </r>
       <r>   -1.1146    1.0000 </r>
       <r>   -0.8045    1.0000 </r>
       <r>   -0.7960    1.0000 </r>
       <r>   -0.3729    1.0000 </r>
       <r>   -0.2492    1.0000 </r>
       <r>    0.2575    1.0000 </r>
       <r>    1.4903    1.0000 </r>
       <r>    8.7810    0.0000 </r>
       <r>    9.1433    0.0000 </r>
       <r>    9.8171    0.0000 </r>
       <r>    9.9776    0.0000 </r>
       <r>   10.4047    0.0000 </r>
       <r>   10.5978    0.0000 </r>
       <r>   10.6820    0.0000 </r>
       <r>   11.4543    0.0000 </r>
       <r>   11.4799    0.0000 </r>
       <r>   11.7229    0.0000 </r>
      </set>
      <set comment="kpoint 5">
       <r>  -44.6748    1.0000 </r>
       <r>  -44.6689    1.0000 </r>
       <r>  -44.5222    1.0000 </r>
       <r>  -44.5149    1.0000 </r>
       <r>  -44.4927    1.0000 </r>
       <r>  -44.4898    1.0000 </r>
       <r>  -24.3067    1.0000 </r>
       <r>  -24.2442    1.0000 </r>
       <r>  -24.2347    1.0000 </r>
       <r>  -24.1365    1.0000 </r>
       <r>  -24.0336    1.0000 </r>
       <r>  -24.0251    1.0000 </r>
       <r>  -24.0246    1.0000 </r>
       <r>  -23.9956    1.0000 </r>
       <r>  -23.9812    1.0000 </r>
       <r>  -23.9708    1.0000 </r>
       <r>  -21.4271    1.0000 </r>
       <r>  -20.4504    1.0000 </r>
       <r>  -20.2706    1.0000 </r>
       <r>  -19.9386    1.0000 </r>
       <r>  -19.5561    1.0000 </r>
       <r>  -19.5321    1.0000 </r>
       <r>  -19.4312    1.0000 </r>
       <r>  -19.2934    1.0000 </r>
       <r>   -9.6964    1.0000 </r>
       <r>   -8.8399    1.0000 </r>
       <r>   -5.5206    1.0000 </r>
       <r>   -5.0369    1.0000 </r>
       <r>   -4.7721    1.0000 </r>
       <r>   -4.4448    1.0000 </r>
       <r>   -4.2368    1.0000 </r>
       <r>   -4.0443    1.0000 </r>
       <r>   -3.7873    1.0000 </r>
       <r>   -3.5288    1.0000 </r>
       <r>   -3.4565    1.0000 </r>
       <r>   -3.2041    1.0000 </r>
       <r>   -3.0922    1.0000 </r>
       <r>   -2.8373    1.0000 </r>
       <r>   -2.4885    1.0000 </r>
       <r>   -2.3634    1.0000 </r>
       <r>   -2.2089    1.0000 </r>
       <r>   -1.7319    1.0000 </r>
       <r>   -1.4781    1.0000 </r>
       <r>   -0.9912    1.0000 </r>
       <r>   -0.6981    1.0000 </r>
       <r>   -0.4420    1.0000 </r>
       <r>   -0.3439    1.0000 </r>
       <r>   -0.1711    1.0000 </r>
       <r>    0.2690    1.0000 </r>
       <r>    0.7858    1.0000 </r>
       <r>    9.2147    0.0000 </r>
       <r>    9.4372    0.0000 </r>
       <r>    9.8312    0.0000 </r>
       <r>   10.1401    0.0000 </r>
       <r>   10.5288    0.0000 </r>
       <r>   10.6285    0.0000 </r>
       <r>   10.9446    0.0000 </r>
       <r>   11.2818    0.0000 </r>
       <r>   11.6558    0.0000 </r>
       <r>   11.8487    0.0000 </r>
      </set>
      <set comment="kpoint 6">
       <r>  -44.6746    1.0000 </r>
       <r>  -44.6691    1.0000 </r>
       <r>  -44.5247    1.0000 </r>
       <r>  -44.5127    1.0000 </r>
       <r>  -44.4928    1.0000 </r>
       <r>  -44.4895    1.0000 </r>
       <r>  -24.3087    1.0000 </r>
       <r>  -24.2359    1.0000 </r>
       <r>  -24.2198    1.0000 </r>
       <r>  -24.1330    1.0000 </r>
       <r>  -24.0377    1.0000 </r>
       <r>  -24.0324    1.0000 </r>
       <r>  -24.0234    1.0000 </r>
       <r>  -24.0047    1.0000 </r>
       <r>  -23.9822    1.0000 </r>
       <r>  -23.9778    1.0000 </r>
       <r>  -21.6922    1.0000 </r>
       <r>  -20.4033    1.0000 </r>
       <r>  -19.9703    1.0000 </r>
       <r>  -19.8886    1.0000 </r>
       <r>  -19.6435    1.0000 </r>
       <r>  -19.4760    1.0000 </r>
       <r>  -19.4735    1.0000 </r>
       <r>  -19.2876    1.0000 </r>
       <r>   -9.8137    1.0000 </r>
       <r>   -8.7619    1.0000 </r>
       <r>   -5.3875    1.0000 </r>
       <r>   -5.3268    1.0000 </r>
       <r>   -4.8185    1.0000 </r>
       <r>   -4.7347    1.0000 </r>
       <r>   -4.3412    1.0000 </r>
       <r>   -3.8935    1.0000 </r>
       <r>   -3.5049    1.0000 </r>
       <r>   -3.4633    1.0000 </r>
       <r>   -3.3582    1.0000 </r>
       <r>   -3.2955    1.0000 </r>
       <r>   -2.9299    1.0000 </r>
       <r>   -2.5989    1.0000 </r>
       <r>   -2.4482    1.0000 </r>
       <r>   -2.3770    1.0000 </r>
       <r>   -2.1799    1.0000 </r>
       <r>   -2.1030    1.0000 </r>
       <r>   -1.4850    1.0000 </r>
       <r>   -0.7062    1.0000 </r>
       <r>   -0.5998    1.0000 </r>
       <r>   -0.5073    1.0000 </r>
       <r>   -0.3280    1.0000 </r>
       <r>   -0.2290    1.0000 </r>
       <r>    0.0271    1.0000 </r>
       <r>    0.5417    1.0000 </r>
       <r>    9.2759    0.0000 </r>
       <r>    9.7779    0.0000 </r>
       <r>    9.9967    0.0000 </r>
       <r>   10.3211    0.0000 </r>
       <r>   10.4239    0.0000 </r>
       <r>   10.4549    0.0000 </r>
       <r>   11.3272    0.0000 </r>
       <r>   11.4692    0.0000 </r>
       <r>   11.5492    0.0000 </r>
       <r>   11.6024    0.0000 </r>
      </set>
      <set comment="kpoint 7">
       <r>  -44.6751    1.0000 </r>
       <r>  -44.6687    1.0000 </r>
       <r>  -44.5200    1.0000 </r>
       <r>  -44.5173    1.0000 </r>
       <r>  -44.4932    1.0000 </r>
       <r>  -44.4890    1.0000 </r>
       <r>  -24.3083    1.0000 </r>
       <r>  -24.2469    1.0000 </r>
       <r>  -24.2372    1.0000 </r>
       <r>  -24.1441    1.0000 </r>
       <r>  -24.0340    1.0000 </r>
       <r>  -24.0243    1.0000 </r>
       <r>  -24.0142    1.0000 </r>
       <r>  -23.9864    1.0000 </r>
       <r>  -23.9845    1.0000 </r>
       <r>  -23.9654    1.0000 </r>
       <r>  -21.5726    1.0000 </r>
       <r>  -20.6304    1.0000 </r>
       <r>  -20.0020    1.0000 </r>
       <r>  -19.9592    1.0000 </r>
       <r>  -19.5828    1.0000 </r>
       <r>  -19.4603    1.0000 </r>
       <r>  -19.4061    1.0000 </r>
       <r>  -19.2544    1.0000 </r>
       <r>   -9.6992    1.0000 </r>
       <r>   -8.8725    1.0000 </r>
       <r>   -5.3746    1.0000 </r>
       <r>   -4.6756    1.0000 </r>
       <r>   -4.5862    1.0000 </r>
       <r>   -4.3970    1.0000 </r>
       <r>   -4.0999    1.0000 </r>
       <r>   -4.0823    1.0000 </r>
       <r>   -3.7762    1.0000 </r>
       <r>   -3.7048    1.0000 </r>
       <r>   -3.4527    1.0000 </r>
       <r>   -3.3742    1.0000 </r>
       <r>   -3.1264    1.0000 </r>
       <r>   -2.8669    1.0000 </r>
       <r>   -2.7337    1.0000 </r>
       <r>   -2.6279    1.0000 </r>
       <r>   -2.5360    1.0000 </r>
       <r>   -2.0653    1.0000 </r>
       <r>   -0.9500    1.0000 </r>
       <r>   -0.8197    1.0000 </r>
       <r>   -0.4117    1.0000 </r>
       <r>   -0.3882    1.0000 </r>
       <r>   -0.2649    1.0000 </r>
       <r>   -0.2037    1.0000 </r>
       <r>   -0.1893    1.0000 </r>
       <r>    0.3712    1.0000 </r>
       <r>    9.7320    0.0000 </r>
       <r>    9.8469    0.0000 </r>
       <r>    9.9885    0.0000 </r>
       <r>   10.0136    0.0000 </r>
       <r>   10.0397    0.0000 </r>
[...]
        <r>  0.0004  0.0021  0.0041  0.0801  0.0000  0.0000  0.0000  0.0000  0.0000 </r>
        <r>  0.0003  0.0006  0.0063  0.0009  0.0000  0.0000  0.0000  0.0000  0.0000 </r>
        <r>  0.0004  0.0498  0.0039  0.0284  0.0000  0.0000  0.0000  0.0000  0.0000 </r>
        <r>  0.0003  0.0004  0.0057  0.0001  0.0000  0.0000  0.0000  0.0000  0.0000 </r>
        <r>  0.0075  0.0005  0.0000  0.0010  0.0053  0.0007  0.0001  0.0003  0.0016 </r>
        <r>  0.0000  0.0041  0.0101  0.0015  0.0029  0.0001  0.0000  0.0003  0.0130 </r>
        <r>  0.0016  0.0004  0.0000  0.0008  0.0021  0.0014  0.0030  0.0005  0.0005 </r>
        <r>  0.0000  0.0050  0.0035  0.0018  0.0004  0.0000  0.0000  0.0002  0.0012 </r>
       </set>
       <set comment="band 45">
        <r>  0.0000  0.0093  0.0019  0.0121  0.0000  0.0000  0.0000  0.0000  0.0000 </r>
        <r>  0.0011  0.0475  0.0025  0.0486  0.0000  0.0000  0.0000  0.0000  0.0000 </r>
        <r>  0.0000  0.0227  0.0010  0.0002  0.0000  0.0000  0.0000  0.0000  0.0000 </r>
        <r>  0.0011  0.0100  0.0018  0.0761  0.0000  0.0000  0.0000  0.0000  0.0000 </r>
        <r>  0.0022  0.0564  0.0291  0.0655  0.0000  0.0000  0.0000  0.0000  0.0000 </r>
        <r>  0.0001  0.0478  0.0116  0.0139  0.0000  0.0000  0.0000  0.0000  0.0000 </r>
        <r>  0.0021  0.0181  0.0282  0.1054  0.0000  0.0000  0.0000  0.0000  0.0000 </r>
        <r>  0.0000  0.0000  0.0109  0.0517  0.0000  0.0000  0.0000  0.0000  0.0000 </r>
        <r>  0.0005  0.0019  0.0000  0.0038  0.0130  0.0017  0.0056  0.0009  0.0034 </r>
        <r>  0.0000  0.0123  0.0001  0.0043  0.0003  0.0027  0.0000  0.0077  0.0018 </r>
        <r>  0.0032  0.0000  0.0000  0.0000  0.0010  0.0000  0.0002  0.0000  0.0003 </r>
        <r>  0.0000  0.0036  0.0061  0.0014  0.0000  0.0000  0.0000  0.0000  0.0000 </r>
       </set>
       <set comment="band 46">
        <r>  0.0021  0.0534  0.0282  0.0701  0.0000  0.0000  0.0000  0.0000  0.0000 </r>
        <r>  0.0000  0.0413  0.0109  0.0104  0.0000  0.0000  0.0000  0.0000  0.0000 </r>
        <r>  0.0022  0.0153  0.0291  0.1066  0.0000  0.0000  0.0000  0.0000  0.0000 </r>
        <r>  0.0001  0.0001  0.0116  0.0617  0.0000  0.0000  0.0000  0.0000  0.0000 </r>
        <r>  0.0000  0.0063  0.0010  0.0166  0.0000  0.0000  0.0000  0.0000  0.0000 </r>
        <r>  0.0011  0.0410  0.0018  0.0451  0.0000  0.0000  0.0000  0.0000  0.0000 </r>
        <r>  0.0000  0.0200  0.0019  0.0014  0.0000  0.0000  0.0000  0.0000  0.0000 </r>
        <r>  0.0011  0.0101  0.0025  0.0860  0.0000  0.0000  0.0000  0.0000  0.0000 </r>
        <r>  0.0000  0.0116  0.0001  0.0049  0.0006  0.0031  0.0000  0.0074  0.0015 </r>
        <r>  0.0005  0.0013  0.0000  0.0044  0.0133  0.0020  0.0056  0.0006  0.0031 </r>
        <r>  0.0000  0.0036  0.0061  0.0014  0.0000  0.0000  0.0000  0.0000  0.0000 </r>
        <r>  0.0032  0.0000  0.0000  0.0000  0.0010  0.0000  0.0002  0.0000  0.0003 </r>
       </set>
       <set comment="band 47">
        <r>  0.0002  0.0001  0.0111  0.0007  0.0000  0.0000  0.0000  0.0000  0.0000 </r>
        <r>  0.0000  0.1055  0.0146  0.0335  0.0000  0.0000  0.0000  0.0000  0.0000 </r>
        <r>  0.0002  0.0004  0.0159  0.0004  0.0000  0.0000  0.0000  0.0000  0.0000 </r>
        <r>  0.0000  0.0906  0.0142  0.0452  0.0000  0.0000  0.0000  0.0000  0.0000 </r>
        <r>  0.0000  0.0035  0.1601  0.0000  0.0000  0.0000  0.0000  0.0000  0.0000 </r>
        <r>  0.0003  0.0003  0.0011  0.0250  0.0000  0.0000  0.0000  0.0000  0.0000 </r>
        <r>  0.0000  0.0005  0.1649  0.0031  0.0000  0.0000  0.0000  0.0000  0.0000 </r>
        <r>  0.0003  0.0179  0.0007  0.0043  0.0000  0.0000  0.0000  0.0000  0.0000 </r>
        <r>  0.0000  0.0000  0.0020  0.0000  0.0000  0.0002  0.0000  0.0004  0.0002 </r>
        <r>  0.0001  0.0001  0.0000  0.0002  0.0034  0.0048  0.0000  0.0018  0.0009 </r>
        <r>  0.0000  0.0027  0.0000  0.0010  0.0000  0.0011  0.0000  0.0027  0.0001 </r>
        <r>  0.0000  0.0000  0.0000  0.0001  0.0006  0.0006  0.0019  0.0002  0.0001 </r>
       </set>
       <set comment="band 48">
        <r>  0.0000  0.0036  0.1649  0.0000  0.0000  0.0000  0.0000  0.0000  0.0000 </r>
        <r>  0.0003  0.0000  0.0007  0.0221  0.0000  0.0000  0.0000  0.0000  0.0000 </r>
        <r>  0.0000  0.0006  0.1601  0.0030  0.0000  0.0000  0.0000  0.0000  0.0000 </r>
        <r>  0.0003  0.0223  0.0011  0.0030  0.0000  0.0000  0.0000  0.0000  0.0000 </r>
        <r>  0.0002  0.0001  0.0159  0.0007  0.0000  0.0000  0.0000  0.0000  0.0000 </r>
        <r>  0.0000  0.1052  0.0142  0.0306  0.0000  0.0000  0.0000  0.0000  0.0000 </r>
        <r>  0.0002  0.0004  0.0111  0.0003  0.0000  0.0000  0.0000  0.0000  0.0000 </r>
        <r>  0.0000  0.0951  0.0146  0.0439  0.0000  0.0000  0.0000  0.0000  0.0000 </r>
        <r>  0.0001  0.0001  0.0000  0.0002  0.0034  0.0047  0.0000  0.0019  0.0008 </r>
        <r>  0.0000  0.0000  0.0020  0.0000  0.0001  0.0001  0.0000  0.0005  0.0001 </r>
        <r>  0.0000  0.0001  0.0000  0.0001  0.0006  0.0005  0.0019  0.0002  0.0001 </r>
        <r>  0.0000  0.0027  0.0000  0.0010  0.0000  0.0010  0.0000  0.0028  0.0000 </r>
       </set>
       <set comment="band 49">
        <r>  0.0007  0.0012  0.0251  0.0380  0.0000  0.0000  0.0000  0.0000  0.0000 </r>
        <r>  0.0021  0.0047  0.0628  0.0012  0.0000  0.0000  0.0000  0.0000  0.0000 </r>
        <r>  0.0007  0.0229  0.0254  0.0135  0.0000  0.0000  0.0000  0.0000  0.0000 </r>
        <r>  0.0021  0.0001  0.0630  0.0062  0.0000  0.0000  0.0000  0.0000  0.0000 </r>
        <r>  0.0010  0.0086  0.0008  0.0679  0.0000  0.0000  0.0000  0.0000  0.0000 </r>
        <r>  0.0007  0.0026  0.0001  0.0528  0.0000  0.0000  0.0000  0.0000  0.0000 </r>
        <r>  0.0010  0.0728  0.0011  0.0009  0.0000  0.0000  0.0000  0.0000  0.0000 </r>
        <r>  0.0007  0.0523  0.0002  0.0034  0.0000  0.0000  0.0000  0.0000  0.0000 </r>
        <r>  0.0000  0.0006  0.0107  0.0003  0.0020  0.0018  0.0000  0.0051  0.0081 </r>
        <r>  0.0021  0.0082  0.0000  0.0215  0.0001  0.0035  0.0001  0.0014  0.0000 </r>
        <r>  0.0001  0.0014  0.0001  0.0006  0.0000  0.0000  0.0000  0.0001  0.0000 </r>
        <r>  0.2550  0.0037  0.0000  0.0100  0.0000  0.0000  0.0000  0.0000  0.0000 </r>
       </set>
       <set comment="band 50">
        <r>  0.0010  0.0088  0.0011  0.0649  0.0000  0.0000  0.0000  0.0000  0.0000 </r>
        <r>  0.0007  0.0024  0.0002  0.0533  0.0000  0.0000  0.0000  0.0000  0.0000 </r>
        <r>  0.0010  0.0753  0.0008  0.0011  0.0000  0.0000  0.0000  0.0000  0.0000 </r>
        <r>  0.0007  0.0523  0.0001  0.0032  0.0000  0.0000  0.0000  0.0000  0.0000 </r>
        <r>  0.0007  0.0014  0.0254  0.0350  0.0000  0.0000  0.0000  0.0000  0.0000 </r>
        <r>  0.0021  0.0045  0.0630  0.0017  0.0000  0.0000  0.0000  0.0000  0.0000 </r>
        <r>  0.0007  0.0254  0.0251  0.0137  0.0000  0.0000  0.0000  0.0000  0.0000 </r>
        <r>  0.0021  0.0000  0.0628  0.0059  0.0000  0.0000  0.0000  0.0000  0.0000 </r>
        <r>  0.0021  0.0083  0.0000  0.0214  0.0001  0.0036  0.0001  0.0013  0.0000 </r>
        <r>  0.0000  0.0008  0.0107  0.0002  0.0020  0.0020  0.0000  0.0049  0.0081 </r>
        <r>  0.2550  0.0039  0.0000  0.0098  0.0000  0.0000  0.0000  0.0000  0.0000 </r>
        <r>  0.0001  0.0015  0.0001  0.0005  0.0000  0.0000  0.0000  0.0001  0.0000 </r>
       </set>
       <set comment="band 51">
        <r>  0.0018  0.0005  0.0004  0.0085  0.0000  0.0000  0.0000  0.0000  0.0000 </r>
        <r>  0.0016  0.0000  0.0006  0.0007  0.0000  0.0000  0.0000  0.0000  0.0000 </r>
        <r>  0.0003  0.0135  0.0000  0.0011  0.0000  0.0000  0.0000  0.0000  0.0000 </r>
        <r>  0.0011  0.0004  0.0039  0.0230  0.0000  0.0000  0.0000  0.0000  0.0000 </r>
        <r>  0.0015  0.0015  0.0005  0.0013  0.0000  0.0000  0.0000  0.0000  0.0000 </r>
        <r>  0.0007  0.0090  0.0044  0.0000  0.0000  0.0000  0.0000  0.0000  0.0000 </r>
        <r>  0.0000  0.0084  0.0001  0.0000  0.0000  0.0000  0.0000  0.0000  0.0000 </r>
        <r>  0.0002  0.0015  0.0077  0.0302  0.0000  0.0000  0.0000  0.0000  0.0000 </r>
        <r>  0.0000  0.0025  0.0007  0.0017  0.2761  0.0208  0.0031  0.0053  0.1452 </r>
        <r>  0.0000  0.0025  0.0021  0.0001  0.0570  0.0082  0.0010  0.0007  0.1098 </r>
        <r>  0.0000  0.0001  0.0217  0.0031  0.0006  0.0011  0.0010  0.0000  0.0004 </r>
        <r>  0.0000  0.0002  0.0680  0.0019  0.0001  0.0009  0.0003  0.0003  0.0003 </r>
       </set>
       <set comment="band 52">
        <r>  0.0000  0.0015  0.0001  0.0070  0.0000  0.0000  0.0000  0.0000  0.0000 </r>
        <r>  0.0002  0.0299  0.0077  0.0018  0.0000  0.0000  0.0000  0.0000  0.0000 </r>
        <r>  0.0015  0.0002  0.0005  0.0025  0.0000  0.0000  0.0000  0.0000  0.0000 </r>
        <r>  0.0007  0.0018  0.0044  0.0072  0.0000  0.0000  0.0000  0.0000  0.0000 </r>
        <r>  0.0003  0.0005  0.0000  0.0142  0.0000  0.0000  0.0000  0.0000  0.0000 </r>
        <r>  0.0011  0.0209  0.0039  0.0025  0.0000  0.0000  0.0000  0.0000  0.0000 </r>
        <r>  0.0018  0.0053  0.0004  0.0036  0.0000  0.0000  0.0000  0.0000  0.0000 </r>
        <r>  0.0016  0.0007  0.0006  0.0000  0.0000  0.0000  0.0000  0.0000  0.0000 </r>
        <r>  0.0000  0.0002  0.0021  0.0024  0.1667  0.0041  0.0010  0.0048  0.0001 </r>
        <r>  0.0000  0.0002  0.0007  0.0040  0.3858  0.0166  0.0031  0.0094  0.0354 </r>
        <r>  0.0000  0.0020  0.0680  0.0001  0.0004  0.0000  0.0003  0.0011  0.0000 </r>
        <r>  0.0000  0.0020  0.0217  0.0013  0.0009  0.0002  0.0010  0.0009  0.0001 </r>
       </set>
       <set comment="band 53">
        <r>  0.0008  0.0047  0.0072  0.0040  0.0000  0.0000  0.0000  0.0000  0.0000 </r>
        <r>  0.0030  0.0012  0.0025  0.0002  0.0000  0.0000  0.0000  0.0000  0.0000 </r>
        <r>  0.0014  0.0006  0.0074  0.0076  0.0000  0.0000  0.0000  0.0000  0.0000 </r>
        <r>  0.0032  0.0002  0.0021  0.0010  0.0000  0.0000  0.0000  0.0000  0.0000 </r>
        <r>  0.0069  0.0003  0.0001  0.0011  0.0000  0.0000  0.0000  0.0000  0.0000 </r>
        <r>  0.0001  0.0000  0.0023  0.0171  0.0000  0.0000  0.0000  0.0000  0.0000 </r>
        <r>  0.0075  0.0004  0.0003  0.0005  0.0000  0.0000  0.0000  0.0000  0.0000 </r>
        <r>  0.0002  0.0128  0.0018  0.0041  0.0000  0.0000  0.0000  0.0000  0.0000 </r>
        <r>  0.0055  0.0000  0.0000  0.0001  0.0435  0.0522  0.2883  0.0225  0.0160 </r>
        <r>  0.0000  0.0004  0.0091  0.0002  0.0288  0.0038  0.0007  0.0157  0.1365 </r>
        <r>  0.0013  0.0087  0.0001  0.0178  0.0000  0.0009  0.0003  0.0004  0.0000 </r>
        <r>  0.0000  0.0229  0.0529  0.0071  0.0001  0.0004  0.0000  0.0013  0.0004 </r>
       </set>
       <set comment="band 54">
        <r>  0.0075  0.0001  0.0003  0.0007  0.0000  0.0000  0.0000  0.0000  0.0000 </r>
        <r>  0.0002  0.0001  0.0018  0.0169  0.0000  0.0000  0.0000  0.0000  0.0000 </r>
        <r>  0.0069  0.0005  0.0001  0.0009  0.0000  0.0000  0.0000  0.0000  0.0000 </r>
        <r>  0.0001  0.0133  0.0023  0.0038  0.0000  0.0000  0.0000  0.0000  0.0000 </r>
        <r>  0.0014  0.0045  0.0074  0.0036  0.0000  0.0000  0.0000  0.0000  0.0000 </r>
        <r>  0.0032  0.0012  0.0021  0.0000  0.0000  0.0000  0.0000  0.0000  0.0000 </r>
        <r>  0.0008  0.0007  0.0072  0.0080  0.0000  0.0000  0.0000  0.0000  0.0000 </r>
        <r>  0.0030  0.0007  0.0025  0.0006  0.0000  0.0000  0.0000  0.0000  0.0000 </r>
        <r>  0.0000  0.0004  0.0091  0.0002  0.0368  0.0072  0.0007  0.0123  0.1286 </r>
        <r>  0.0055  0.0001  0.0000  0.0001  0.0514  0.0556  0.2883  0.0190  0.0080 </r>
        <r>  0.0000  0.0204  0.0529  0.0096  0.0001  0.0005  0.0000  0.0011  0.0004 </r>
        <r>  0.0013  0.0061  0.0001  0.0204  0.0000  0.0010  0.0003  0.0003  0.0000 </r>
       </set>
       <set comment="band 55">
        <r>  0.0073  0.0064  0.0002  0.0082  0.0000  0.0000  0.0000  0.0000  0.0000 </r>
        <r>  0.0014  0.0078  0.0003  0.0005  0.0000  0.0000  0.0000  0.0000  0.0000 </r>
        <r>  0.0073  0.0019  0.0002  0.0119  0.0000  0.0000  0.0000  0.0000  0.0000 </r>
        <r>  0.0018  0.0032  0.0004  0.0048  0.0000  0.0000  0.0000  0.0000  0.0000 </r>
        <r>  0.0001  0.0010  0.0003  0.0041  0.0000  0.0000  0.0000  0.0000  0.0000 </r>
        <r>  0.0061  0.0005  0.0070  0.0010  0.0000  0.0000  0.0000  0.0000  0.0000 </r>
        <r>  0.0000  0.0017  0.0003  0.0025  0.0000  0.0000  0.0000  0.0000  0.0000 </r>
        <r>  0.0065  0.0013  0.0072  0.0000  0.0000  0.0000  0.0000  0.0000  0.0000 </r>
        <r>  0.0000  0.0143  0.0133  0.0052  0.0119  0.0806  0.0000  0.1939  0.0498 </r>
        <r>  0.0001  0.0009  0.0000  0.0017  0.0021  0.0765  0.0062  0.0236  0.0010 </r>
        <r>  0.0000  0.1153  0.0032  0.0432  0.0001  0.0008  0.0000  0.0020  0.0001 </r>
        <r>  0.0044  0.0025  0.0000  0.0035  0.0021  0.0001  0.0000  0.0000  0.0005 </r>
       </set>
       <set comment="band 56">
        <r>  0.0000  0.0007  0.0003  0.0034  0.0000  0.0000  0.0000  0.0000  0.0000 </r>
        <r>  0.0065  0.0003  0.0072  0.0009  0.0000  0.0000  0.0000  0.0000  0.0000 </r>
        <r>  0.0001  0.0019  0.0003  0.0032  0.0000  0.0000  0.0000  0.0000  0.0000 </r>
        <r>  0.0061  0.0015  0.0070  0.0000  0.0000  0.0000  0.0000  0.0000  0.0000 </r>
        <r>  0.0073  0.0061  0.0002  0.0076  0.0000  0.0000  0.0000  0.0000  0.0000 </r>
        <r>  0.0018  0.0076  0.0004  0.0004  0.0000  0.0000  0.0000  0.0000  0.0000 </r>
        <r>  0.0073  0.0021  0.0002  0.0125  0.0000  0.0000  0.0000  0.0000  0.0000 </r>
        <r>  0.0014  0.0034  0.0003  0.0048  0.0000  0.0000  0.0000  0.0000  0.0000 </r>
        <r>  0.0001  0.0005  0.0000  0.0020  0.0028  0.0678  0.0062  0.0322  0.0003 </r>
        <r>  0.0000  0.0139  0.0133  0.0056  0.0125  0.0719  0.0000  0.2025  0.0492 </r>
        <r>  0.0044  0.0009  0.0000  0.0051  0.0020  0.0000  0.0000  0.0000  0.0005 </r>
        <r>  0.0000  0.1137  0.0032  0.0448  0.0000  0.0008  0.0000  0.0020  0.0002 </r>
       </set>
       <set comment="band 57">
        <r>  0.0010  0.0003  0.0246  0.0003  0.0000  0.0000  0.0000  0.0000  0.0000 </r>
        <r>  0.0056  0.0000  0.0031  0.0022  0.0000  0.0000  0.0000  0.0000  0.0000 </r>
        <r>  0.0019  0.0001  0.0253  0.0005  0.0000  0.0000  0.0000  0.0000  0.0000 </r>
        <r>  0.0058  0.0003  0.0063  0.0016  0.0000  0.0000  0.0000  0.0000  0.0000 </r>
        <r>  0.0036  0.0003  0.0000  0.0000  0.0000  0.0000  0.0000  0.0000  0.0000 </r>
        <r>  0.0000  0.0257  0.0121  0.0051  0.0000  0.0000  0.0000  0.0000  0.0000 </r>
        <r>  0.0045  0.0000  0.0008  0.0002  0.0000  0.0000  0.0000  0.0000  0.0000 </r>
        <r>  0.0002  0.0167  0.0153  0.0138  0.0000  0.0000  0.0000  0.0000  0.0000 </r>
        <r>  0.0043  0.0009  0.0001  0.0016  0.0005  0.2737  0.0374  0.0803  0.0014 </r>
        <r>  0.0000  0.0015  0.0141  0.0003  0.0104  0.0546  0.0004  0.0695  0.0457 </r>
        <r>  0.0000  0.0122  0.0004  0.0302  0.0000  0.0000  0.0002  0.0000  0.0000 </r>
        <r>  0.0000  0.0008  0.0443  0.0000  0.0001  0.0003  0.0000  0.0007  0.0003 </r>
       </set>
       <set comment="band 58">
        <r>  0.0045  0.0002  0.0008  0.0000  0.0000  0.0000  0.0000  0.0000  0.0000 </r>
        <r>  0.0002  0.0265  0.0153  0.0040  0.0000  0.0000  0.0000  0.0000  0.0000 </r>
        <r>  0.0036  0.0000  0.0000  0.0003  0.0000  0.0000  0.0000  0.0000  0.0000 </r>
        <r>  0.0000  0.0183  0.0121  0.0125  0.0000  0.0000  0.0000  0.0000  0.0000 </r>
        <r>  0.0019  0.0002  0.0253  0.0003  0.0000  0.0000  0.0000  0.0000  0.0000 </r>
        <r>  0.0058  0.0008  0.0063  0.0011  0.0000  0.0000  0.0000  0.0000  0.0000 </r>
        <r>  0.0010  0.0001  0.0246  0.0006  0.0000  0.0000  0.0000  0.0000  0.0000 </r>
        <r>  0.0056  0.0020  0.0031  0.0003  0.0000  0.0000  0.0000  0.0000  0.0000 </r>
        <r>  0.0000  0.0011  0.0141  0.0007  0.0118  0.0175  0.0004  0.1066  0.0443 </r>
        <r>  0.0043  0.0005  0.0001  0.0020  0.0018  0.2367  0.0374  0.1174  0.0000 </r>
        <r>  0.0000  0.0001  0.0443  0.0008  0.0001  0.0003  0.0000  0.0007  0.0003 </r>
        <r>  0.0000  0.0114  0.0004  0.0310  0.0000  0.0000  0.0002  0.0000  0.0000 </r>
       </set>
       <set comment="band 59">
        <r>  0.0019  0.0147  0.0018  0.0041  0.0000  0.0000  0.0000  0.0000  0.0000 </r>
        <r>  0.0002  0.0095  0.0048  0.0060  0.0000  0.0000  0.0000  0.0000  0.0000 </r>
        <r>  0.0021  0.0033  0.0007  0.0104  0.0000  0.0000  0.0000  0.0000  0.0000 </r>
        <r>  0.0000  0.0223  0.0038  0.0009  0.0000  0.0000  0.0000  0.0000  0.0000 </r>
        <r>  0.0000  0.0323  0.0029  0.0069  0.0000  0.0000  0.0000  0.0000  0.0000 </r>
        <r>  0.0027  0.0009  0.0011  0.0122  0.0000  0.0000  0.0000  0.0000  0.0000 </r>
        <r>  0.0002  0.0270  0.0018  0.0070  0.0000  0.0000  0.0000  0.0000  0.0000 </r>
        <r>  0.0025  0.0169  0.0001  0.0039  0.0000  0.0000  0.0000  0.0000  0.0000 </r>
        <r>  0.0004  0.0104  0.0000  0.0152  0.0217  0.0289  0.1869  0.0066  0.0276 </r>
        <r>  0.0000  0.0151  0.0017  0.0020  0.0354  0.0082  0.0053  0.0073  0.2088 </r>
        <r>  0.0012  0.0006  0.0002  0.0001  0.0004  0.0009  0.0001  0.0006  0.0000 </r>
        <r>  0.0000  0.0066  0.0084  0.0022  0.0015  0.0002  0.0000  0.0012  0.0053 </r>
       </set>
       <set comment="band 60">
        <r>  0.0002  0.0219  0.0018  0.0121  0.0000  0.0000  0.0000  0.0000  0.0000 </r>
        <r>  0.0025  0.0000  0.0001  0.0208  0.0000  0.0000  0.0000  0.0000  0.0000 </r>
        <r>  0.0000  0.0237  0.0029  0.0154  0.0000  0.0000  0.0000  0.0000  0.0000 </r>
        <r>  0.0027  0.0073  0.0011  0.0058  0.0000  0.0000  0.0000  0.0000  0.0000 </r>
        <r>  0.0021  0.0044  0.0007  0.0093  0.0000  0.0000  0.0000  0.0000  0.0000 </r>
        <r>  0.0000  0.0086  0.0038  0.0146  0.0000  0.0000  0.0000  0.0000  0.0000 </r>
        <r>  0.0019  0.0000  0.0018  0.0189  0.0000  0.0000  0.0000  0.0000  0.0000 </r>
        <r>  0.0002  0.0128  0.0048  0.0028  0.0000  0.0000  0.0000  0.0000  0.0000 </r>
        <r>  0.0000  0.0090  0.0017  0.0082  0.0627  0.0013  0.0053  0.0142  0.1815 </r>
        <r>  0.0004  0.0042  0.0000  0.0213  0.0490  0.0221  0.1870  0.0134  0.0003 </r>
        <r>  0.0000  0.0061  0.0084  0.0027  0.0012  0.0006  0.0000  0.0007  0.0057 </r>
        <r>  0.0012  0.0000  0.0002  0.0006  0.0001  0.0013  0.0001  0.0002  0.0004 </r>
       </set>
      </set>
     </set>
    </set>
   </array>
  </projected>
 </calculation>
 <structure name="finalpos" >
  <crystal>
   <varray name="basis" >
    <v>       6.76512384      -0.01097952       0.01283022 </v>
    <v>      -3.01811114       6.05458721       0.01283022 </v>
    <v>       1.92830087       3.11018267       3.61379475 </v>
   </varray>
   <i name="volume">    147.36093927 </i>
   <varray name="rec_basis" >
    <v>       0.14820841       0.07418231      -0.14292758 </v>
    <v>       0.00054005       0.16573611      -0.14292758 </v>
    <v>      -0.00052811      -0.00085179       0.27773232 </v>
   </varray>
  </crystal>
  <varray name="positions" >
   <v>       0.29911742       0.71860040       0.63663713 </v>
   <v>       0.93282415       0.82688746       0.88482770 </v>
   <v>       0.78139960       0.20088257       0.86336287 </v>
   <v>       0.67311254       0.56717585       0.61517230 </v>
   <v>       0.70088258       0.28139960       0.36336287 </v>
   <v>       0.06717585       0.17311254       0.11517229 </v>
   <v>       0.21860042       0.79911742       0.13663711 </v>
   <v>       0.32688746       0.43282415       0.38482770 </v>
   <v>       0.11884710       0.38115290       0.75000000 </v>
   <v>       0.88115290       0.61884710       0.25000000 </v>
   <v>       0.61508869       0.88491131       0.75000000 </v>
   <v>       0.38491128       0.11508872       0.25000000 </v>
  </varray>
 </structure>
</modeling>
