ZnO_Bulk                                
           1
     6.765125   -0.011049    0.012883
    -3.018174    6.054557    0.012883
     1.928297    3.110176    3.613949
   O    V    Bi
   8   2   2
Direct configuration=     1
   0.29911750  0.71859876  0.63663547
   0.93282592  0.82688967  0.88482674
   0.78140124  0.20088248  0.86336453
   0.67311033  0.56717408  0.61517326
   0.70088250  0.28140124  0.36336453
   0.06717409  0.17311033  0.11517325
   0.21859877  0.79911750  0.13663545
   0.32688967  0.43282592  0.38482674
   0.11885269  0.38114731  0.75000000
   0.88114731  0.61885269  0.25000000
   0.61509232  0.88490768  0.75000000
   0.38490765  0.11509235  0.25000000
ZnO_Bulk                                
           1
     6.765080   -0.010841    0.012820
    -3.017968    6.054610    0.012820
     1.928346    3.110256    3.613928
   O    V    Bi
   8   2   2
Direct configuration=     2
   0.29911817  0.71860002  0.63663476
   0.93282536  0.82689049  0.88482486
   0.78139998  0.20088181  0.86336524
   0.67310951  0.56717464  0.61517514
   0.70088183  0.28139998  0.36336524
   0.06717465  0.17310951  0.11517513
   0.21860004  0.79911817  0.13663475
   0.32689049  0.43282536  0.38482486
   0.11884875  0.38115125  0.75000000
   0.88115125  0.61884875  0.25000000
   0.61508952  0.88491048  0.75000000
   0.38491045  0.11508955  0.25000000
ZnO_Bulk                                
           1
     6.765096   -0.010859    0.012758
    -3.017991    6.054616    0.012758
     1.928310    3.110197    3.613823
   O    V    Bi
   8   2   2
Direct configuration=     3
   0.29911701  0.71859839  0.63663584
   0.93282430  0.82688760  0.88483005
   0.78140161  0.20088298  0.86336416
   0.67311240  0.56717570  0.61516995
   0.70088299  0.28140161  0.36336416
   0.06717570  0.17311240  0.11516994
   0.21859841  0.79911701  0.13663582
   0.32688760  0.43282430  0.38483005
   0.11884978  0.38115022  0.75000000
   0.88115022  0.61884978  0.25000000
   0.61508939  0.88491061  0.75000000
   0.38491059  0.11508941  0.25000000
ZnO_Bulk                                
           1
     6.765169   -0.010941    0.012767
    -3.018096    6.054645    0.012767
     1.928298    3.110178    3.613851
   O    V    Bi
   8   2   2
Direct configuration=     4
   0.29911762  0.71859904  0.63663579
   0.93282470  0.82689062  0.88482469
   0.78140096  0.20088236  0.86336421
   0.67310938  0.56717530  0.61517531
   0.70088238  0.28140096  0.36336421
   0.06717530  0.17310938  0.11517529
   0.21859906  0.79911762  0.13663577
   0.32689062  0.43282470  0.38482469
   0.11884650  0.38115350  0.75000000
   0.88115350  0.61884650  0.25000000
   0.61508860  0.88491140  0.75000000
   0.38491137  0.11508863  0.25000000
ZnO_Bulk                                
           1
     6.765115   -0.011014    0.012818
    -3.018138    6.054564    0.012818
     1.928276    3.110142    3.613855
   O    V    Bi
   8   2   2
Direct configuration=     5
   0.29911738  0.71859893  0.63663636
   0.93282451  0.82688898  0.88482631
   0.78140107  0.20088260  0.86336364
   0.67311102  0.56717549  0.61517369
   0.70088262  0.28140107  0.36336364
   0.06717550  0.17311102  0.11517367
   0.21859894  0.79911738  0.13663634
   0.32688898  0.43282451  0.38482631
   0.11884714  0.38115286  0.75000000
   0.88115286  0.61884714  0.25000000
   0.61508866  0.88491134  0.75000000
   0.38491131  0.11508869  0.25000000
ZnO_Bulk                                
           1
     6.765161   -0.011031    0.012831
    -3.018174    6.054597    0.012831
     1.928288    3.110162    3.613716
   O    V    Bi
   8   2   2
Direct configuration=     6
   0.29911779  0.71860215  0.63663682
   0.93282353  0.82688352  0.88483313
   0.78139785  0.20088219  0.86336318
   0.67311648  0.56717647  0.61516687
   0.70088221  0.28139785  0.36336318
   0.06717648  0.17311648  0.11516685
   0.21860217  0.79911779  0.13663680
   0.32688352  0.43282353  0.38483313
   0.11885195  0.38114805  0.75000000
   0.88114805  0.61885195  0.25000000
   0.61509001  0.88490999  0.75000000
   0.38490996  0.11509004  0.25000000
ZnO_Bulk                                
           1
     6.765124   -0.010980    0.012830
    -3.018111    6.054587    0.012830
     1.928301    3.110183    3.613795
   O    V    Bi
   8   2   2
Direct configuration=     7
   0.29911742  0.71860040  0.63663713
   0.93282415  0.82688746  0.88482770
   0.78139960  0.20088257  0.86336287
   0.67311254  0.56717585  0.61517230
   0.70088258  0.28139960  0.36336287
   0.06717585  0.17311254  0.11517229
   0.21860042  0.79911742  0.13663711
   0.32688746  0.43282415  0.38482770
   0.11884710  0.38115290  0.75000000
   0.88115290  0.61884710  0.25000000
   0.61508869  0.88491131  0.75000000
   0.38491128  0.11508872  0.25000000
